
     Program PHONON v.7.2 starts on 21May2025 at 16:33:33 

     This program is part of the open-source Quantum ESPRESSO suite
     for quantum simulation of materials; please cite
         "P. Giannozzi et al., J. Phys.:Condens. Matter 21 395502 (2009);
         "P. Giannozzi et al., J. Phys.:Condens. Matter 29 465901 (2017);
         "P. Giannozzi et al., J. Chem. Phys. 152 154105 (2020);
          URL http://www.quantum-espresso.org", 
     in publications or presentations arising from this work. More details at
     http://www.quantum-espresso.org/quote

     Parallel version (MPI & OpenMP), running on       4 processor cores
     Number of MPI processes:                 4
     Threads/MPI process:                     1

     MPI processes distributed on     1 nodes
     50815 MiB available memory on the printing compute node when the environment starts

     Reading input from Si.ph.in

     Reading xml data from directory:

     ./tmp/Si.save/

     R & G space division:  proc/nbgrp/npool/nimage =       4
     Subspace diagonalization in iterative solution of the eigenvalue problem:
     a serial algorithm will be used


     IMPORTANT: XC functional enforced from input :
     Exchange-correlation= PBE
                           (   1   4   3   4   0   0   0)
     Any further DFT definition will be discarded
     Please, verify this is what you really want


     Parallelization info
     --------------------
     sticks:   dense  smooth     PW     G-vecs:    dense   smooth      PW
     Min         646     214     63                21958     4221     684
     Max         647     215     64                21962     4224     688
     Sum        2587     859    253                87843    16889    2741

     Using Slab Decomposition

     Reading collected, re-writing distributed wavefunctions in ./tmp/


     Dynamical matrices for ( 4, 4, 4)  uniform grid of q-points
     (   8 q-points):
       N         xq(1)         xq(2)         xq(3) 
       1   0.000000000   0.000000000   0.000000000
       2  -0.250000000   0.250000000  -0.250000000
       3   0.500000000  -0.500000000   0.500000000
       4   0.000000000   0.500000000   0.000000000
       5   0.750000000  -0.250000000   0.750000000
       6   0.500000000   0.000000000   0.500000000
       7   0.000000000  -1.000000000   0.000000000
       8  -0.500000000  -1.000000000   0.000000000

     Calculation of q =    0.0000000   0.0000000   0.0000000

     Phonons on a uniform q-grid                                                

     bravais-lattice index     =            2
     lattice parameter (alat)  =      10.2625  a.u.
     unit-cell volume          =     270.2088 (a.u.)^3
     number of atoms/cell      =            2
     number of atomic types    =            1
     kinetic-energy cut-off    =      60.0000  Ry
     charge density cut-off    =     720.0000  Ry
     convergence threshold     =      1.0E-14
     beta                      =       0.7000
     number of iterations used =            4
     Exchange-correlation= PBE
                           (   1   4   3   4   0   0   0)


     celldm(1)=   10.26250  celldm(2)=    0.00000  celldm(3)=    0.00000
     celldm(4)=    0.00000  celldm(5)=    0.00000  celldm(6)=    0.00000

     crystal axes: (cart. coord. in units of alat)
               a(1) = ( -0.5000  0.0000  0.5000 )  
               a(2) = (  0.0000  0.5000  0.5000 )  
               a(3) = ( -0.5000  0.5000  0.0000 )  

     reciprocal axes: (cart. coord. in units 2 pi/alat)
               b(1) = ( -1.0000 -1.0000  1.0000 )  
               b(2) = (  1.0000  1.0000  1.0000 )  
               b(3) = ( -1.0000  1.0000 -1.0000 )  


     Atoms inside the unit cell: 

     Cartesian axes

     site n.  atom      mass           positions (alat units)
        1     Si  28.0855   tau(    1) = (    0.00000    0.00000    0.00000  )
        2     Si  28.0855   tau(    2) = (    0.25000    0.25000    0.25000  )

     Computing dynamical matrix for 
                    q = (   0.0000000   0.0000000   0.0000000 )

     49 Sym.Ops. (with q -> -q+G )


     G cutoff = 1920.7865  (  21962 G-vectors)     FFT grid: ( 64, 64, 64)
     G cutoff =  640.2622  (   4224 G-vectors)  smooth grid: ( 36, 36, 36)
     number of k points=    10

     PseudoPot. # 1 for Si read from file:
     ../pseudo/Si.pbe-rrkj.UPF
     MD5 check sum: c5f788e1e261afac4ba18be32da5cf3b
     Pseudo is Norm-conserving, Zval =  4.0
     Generated by new atomic code, or converted to UPF format
     Using radial grid of  883 points,  3 beta functions with: 
                l(1) =   0
                l(2) =   0
                l(3) =   1

     Mode symmetry, O_h (m-3m)  point group:


     Electric field:
     Dielectric constant
     Born effective charges in two ways 


     Atomic displacements:
     There are    2 irreducible representations

     Representation     1      3 modes -  To be done

     Representation     2      3 modes -  To be done



     Alpha used in Ewald sum =   2.8000
     PHONON       :      0.40s CPU      0.42s WALL


     Electric Fields Calculation

      iter #   1 total cpu time :     1.1 secs   av.it.:   6.3
      thresh= 1.000E-02 alpha_mix =  0.700 |ddv_scf|^2 =  2.603E-08

      iter #   2 total cpu time :     1.6 secs   av.it.:  11.9
      thresh= 1.613E-05 alpha_mix =  0.700 |ddv_scf|^2 =  1.504E-09

      iter #   3 total cpu time :     2.1 secs   av.it.:  11.6
      thresh= 3.878E-06 alpha_mix =  0.700 |ddv_scf|^2 =  9.623E-11

      iter #   4 total cpu time :     2.6 secs   av.it.:  11.2
      thresh= 9.810E-07 alpha_mix =  0.700 |ddv_scf|^2 =  2.763E-13

      iter #   5 total cpu time :     3.1 secs   av.it.:  11.9
      thresh= 5.256E-08 alpha_mix =  0.700 |ddv_scf|^2 =  6.768E-16

     End of electric fields calculation

          Dielectric constant in cartesian axis 

          (      13.581468281       0.000000000       0.000000000 )
          (       0.000000000      13.581468281      -0.000000000 )
          (       0.000000000      -0.000000000      13.581468281 )

          Effective charges (d Force / dE) in cartesian axis without acoustic sum rule applied (asr)

           atom      1   Si Mean Z*:       -0.06938
      Ex  (       -0.06938        0.00000        0.00000 )
      Ey  (        0.00000       -0.06938       -0.00000 )
      Ez  (        0.00000       -0.00000       -0.06938 )
           atom      2   Si Mean Z*:       -0.06938
      Ex  (       -0.06938       -0.00000        0.00000 )
      Ey  (       -0.00000       -0.06938        0.00000 )
      Ez  (       -0.00000        0.00000       -0.06938 )

          Effective charges Sum: Mean:       -0.13876
             -0.13876       -0.00000        0.00000
             -0.00000       -0.13876       -0.00000
              0.00000        0.00000       -0.13876

          Effective charges (d Force / dE) in cartesian axis with asr applied: 
           atom      1   Si Mean Z*:        0.00000
      E*x (        0.00000        0.00000        0.00000 )
      E*y (        0.00000        0.00000       -0.00000 )
      E*z (        0.00000       -0.00000        0.00000 )
           atom      2   Si Mean Z*:       -0.00000
      E*x (       -0.00000       -0.00000        0.00000 )
      E*y (       -0.00000       -0.00000        0.00000 )
      E*z (       -0.00000        0.00000       -0.00000 )


     Representation #   1 modes #   1   2   3

     Self-consistent Calculation

      iter #   1 total cpu time :     3.6 secs   av.it.:   5.7
      thresh= 1.000E-02 alpha_mix =  0.700 |ddv_scf|^2 =  5.814E-09

      iter #   2 total cpu time :     4.2 secs   av.it.:  11.9
      thresh= 7.625E-06 alpha_mix =  0.700 |ddv_scf|^2 =  1.310E-10

      iter #   3 total cpu time :     4.8 secs   av.it.:  11.7
      thresh= 1.145E-06 alpha_mix =  0.700 |ddv_scf|^2 =  8.087E-12

      iter #   4 total cpu time :     5.4 secs   av.it.:  11.0
      thresh= 2.844E-07 alpha_mix =  0.700 |ddv_scf|^2 =  4.293E-15

     End of self-consistent calculation

     Convergence has been achieved 


     Representation #   2 modes #   4   5   6

     Self-consistent Calculation

      iter #   1 total cpu time :     6.0 secs   av.it.:   5.6
      thresh= 1.000E-02 alpha_mix =  0.700 |ddv_scf|^2 =  3.996E-09

      iter #   2 total cpu time :     6.6 secs   av.it.:  12.0
      thresh= 6.321E-06 alpha_mix =  0.700 |ddv_scf|^2 =  1.744E-10

      iter #   3 total cpu time :     7.2 secs   av.it.:  11.8
      thresh= 1.321E-06 alpha_mix =  0.700 |ddv_scf|^2 =  9.062E-12

      iter #   4 total cpu time :     7.7 secs   av.it.:  11.1
      thresh= 3.010E-07 alpha_mix =  0.700 |ddv_scf|^2 =  7.090E-15

     End of self-consistent calculation

     Convergence has been achieved 

     Number of q in the star =    1
     List of q in the star:
          1   0.000000000   0.000000000   0.000000000

          Dielectric constant in cartesian axis 

          (      13.581468281       0.000000000       0.000000000 )
          (       0.000000000      13.581468281      -0.000000000 )
          (       0.000000000      -0.000000000      13.581468281 )

          Effective charges (d Force / dE) in cartesian axis without acoustic sum rule applied (asr)

           atom      1   Si Mean Z*:       -0.06938
      Ex  (       -0.06938        0.00000        0.00000 )
      Ey  (        0.00000       -0.06938       -0.00000 )
      Ez  (        0.00000       -0.00000       -0.06938 )
           atom      2   Si Mean Z*:       -0.06938
      Ex  (       -0.06938       -0.00000        0.00000 )
      Ey  (       -0.00000       -0.06938        0.00000 )
      Ez  (       -0.00000        0.00000       -0.06938 )

          Effective charges Sum: Mean:       -0.13876
             -0.13876       -0.00000        0.00000
             -0.00000       -0.13876       -0.00000
              0.00000        0.00000       -0.13876

          Effective charges (d Force / dE) in cartesian axis with asr applied: 
           atom      1   Si Mean Z*:        0.00000
      E*x (        0.00000        0.00000        0.00000 )
      E*y (        0.00000        0.00000       -0.00000 )
      E*z (        0.00000       -0.00000        0.00000 )
           atom      2   Si Mean Z*:       -0.00000
      E*x (       -0.00000       -0.00000        0.00000 )
      E*y (       -0.00000       -0.00000        0.00000 )
      E*z (       -0.00000        0.00000       -0.00000 )

          Effective charges (d P / du) in cartesian axis 

           atom      1   Si 
      Px  (       -0.06745        0.00000        0.00000 )
      Py  (        0.00000       -0.06745        0.00000 )
      Pz  (        0.00000       -0.00000       -0.06745 )
           atom      2   Si 
      Px  (       -0.06745       -0.00000       -0.00000 )
      Py  (       -0.00000       -0.06745        0.00000 )
      Pz  (       -0.00000        0.00000       -0.06745 )

     Diagonalizing the dynamical matrix

     q = (    0.000000000   0.000000000   0.000000000 ) 

 **************************************************************************
     freq (    1) =       0.369224 [THz] =      12.315990 [cm-1]
     freq (    2) =       0.369224 [THz] =      12.315990 [cm-1]
     freq (    3) =       0.369224 [THz] =      12.315990 [cm-1]
     freq (    4) =      15.306901 [THz] =     510.583264 [cm-1]
     freq (    5) =      15.306901 [THz] =     510.583264 [cm-1]
     freq (    6) =      15.306901 [THz] =     510.583264 [cm-1]
 **************************************************************************

     Mode symmetry, O_h (m-3m)  point group:

     freq (   1-   3) =         12.3  [cm-1]   --> T_1u G_15  G_4- I  
     freq (   4-   6) =        510.6  [cm-1]   --> T_2g G_25' G_5+ R  

     Calculation of q =   -0.2500000   0.2500000  -0.2500000

     Parallelization info
     --------------------
     sticks:   dense  smooth     PW     G-vecs:    dense   smooth      PW
     Min         646     214     70                21958     4221     779
     Max         647     215     71                21962     4224     780
     Sum        2587     859    283                87843    16889    3119

     Using Slab Decomposition


     Title: 
     Phonons on a uniform q-grid                                                


     bravais-lattice index     =            2
     lattice parameter (alat)  =      10.2625  a.u.
     unit-cell volume          =     270.2088 (a.u.)^3
     number of atoms/cell      =            2
     number of atomic types    =            1
     number of electrons       =         8.00
     number of Kohn-Sham states=            4
     kinetic-energy cutoff     =      60.0000  Ry
     charge density cutoff     =     720.0000  Ry
     Exchange-correlation= PBE
                           (   1   4   3   4   0   0   0)

     celldm(1)=  10.262500  celldm(2)=   0.000000  celldm(3)=   0.000000
     celldm(4)=   0.000000  celldm(5)=   0.000000  celldm(6)=   0.000000

     crystal axes: (cart. coord. in units of alat)
               a(1) = (  -0.500000   0.000000   0.500000 )  
               a(2) = (   0.000000   0.500000   0.500000 )  
               a(3) = (  -0.500000   0.500000   0.000000 )  

     reciprocal axes: (cart. coord. in units 2 pi/alat)
               b(1) = ( -1.000000 -1.000000  1.000000 )  
               b(2) = (  1.000000  1.000000  1.000000 )  
               b(3) = ( -1.000000  1.000000 -1.000000 )  


     PseudoPot. # 1 for Si read from file:
     ../pseudo/Si.pbe-rrkj.UPF
     MD5 check sum: c5f788e1e261afac4ba18be32da5cf3b
     Pseudo is Norm-conserving, Zval =  4.0
     Generated by new atomic code, or converted to UPF format
     Using radial grid of  883 points,  3 beta functions with: 
                l(1) =   0
                l(2) =   0
                l(3) =   1

     atomic species   valence    mass     pseudopotential
        Si             4.00    28.08550     Si( 1.00)

     48 Sym. Ops., with inversion, found



   Cartesian axes

     site n.     atom                  positions (alat units)
         1           Si  tau(   1) = (   0.0000000   0.0000000   0.0000000  )
         2           Si  tau(   2) = (   0.2500000   0.2500000   0.2500000  )

     number of k points=   120

     Number of k-points >= 100: set verbosity='high' to print them.

     Dense  grid:    87843 G-vectors     FFT dimensions: (  64,  64,  64)

     Smooth grid:    16889 G-vectors     FFT dimensions: (  36,  36,  36)

     Estimated max dynamical RAM per process >       8.06 MB

     Estimated total dynamical RAM >      32.25 MB

     The potential is recalculated from file :
     ./tmp/_ph0/Si.save/charge-density

     Starting wfcs are    8 atomic wfcs

     Band Structure Calculation
     Davidson diagonalization with overlap

     ethr =  1.25E-10,  avg # of iterations = 12.4

     total cpu time spent up to now is        0.8 secs

     End of band structure calculation

     Number of k-points >= 100: set verbosity='high' to print the bands.

     highest occupied level (ev):     5.9401

     Writing config to output data dir ./tmp/_ph0/Si.save/

     Phonons on a uniform q-grid                                                

     bravais-lattice index     =            2
     lattice parameter (alat)  =      10.2625  a.u.
     unit-cell volume          =     270.2088 (a.u.)^3
     number of atoms/cell      =            2
     number of atomic types    =            1
     kinetic-energy cut-off    =      60.0000  Ry
     charge density cut-off    =     720.0000  Ry
     convergence threshold     =      1.0E-14
     beta                      =       0.7000
     number of iterations used =            4
     Exchange-correlation= PBE
                           (   1   4   3   4   0   0   0)


     celldm(1)=   10.26250  celldm(2)=    0.00000  celldm(3)=    0.00000
     celldm(4)=    0.00000  celldm(5)=    0.00000  celldm(6)=    0.00000

     crystal axes: (cart. coord. in units of alat)
               a(1) = ( -0.5000  0.0000  0.5000 )  
               a(2) = (  0.0000  0.5000  0.5000 )  
               a(3) = ( -0.5000  0.5000  0.0000 )  

     reciprocal axes: (cart. coord. in units 2 pi/alat)
               b(1) = ( -1.0000 -1.0000  1.0000 )  
               b(2) = (  1.0000  1.0000  1.0000 )  
               b(3) = ( -1.0000  1.0000 -1.0000 )  


     Atoms inside the unit cell: 

     Cartesian axes

     site n.  atom      mass           positions (alat units)
        1     Si  28.0855   tau(    1) = (    0.00000    0.00000    0.00000  )
        2     Si  28.0855   tau(    2) = (    0.25000    0.25000    0.25000  )

     Computing dynamical matrix for 
                    q = (  -0.2500000   0.2500000  -0.2500000 )

      6 Sym.Ops. (no q -> -q+G )


     G cutoff = 1920.7865  (  21962 G-vectors)     FFT grid: ( 64, 64, 64)
     G cutoff =  640.2622  (   4224 G-vectors)  smooth grid: ( 36, 36, 36)
     number of k points=   120

     PseudoPot. # 1 for Si read from file:
     ../pseudo/Si.pbe-rrkj.UPF
     MD5 check sum: c5f788e1e261afac4ba18be32da5cf3b
     Pseudo is Norm-conserving, Zval =  4.0
     Generated by new atomic code, or converted to UPF format
     Using radial grid of  883 points,  3 beta functions with: 
                l(1) =   0
                l(2) =   0
                l(3) =   1

     Mode symmetry, C_3v (3m)   point group:


     Atomic displacements:
     There are    4 irreducible representations

     Representation     1      1 modes -  To be done

     Representation     2      1 modes -  To be done

     Representation     3      2 modes -  To be done

     Representation     4      2 modes -  To be done



     Alpha used in Ewald sum =   2.8000
     PHONON       :      8.37s CPU      8.67s WALL



     Representation #   1 mode #   1

     Self-consistent Calculation

      iter #   1 total cpu time :     8.9 secs   av.it.:   6.2
      thresh= 1.000E-02 alpha_mix =  0.700 |ddv_scf|^2 =  7.712E-05

      iter #   2 total cpu time :     9.3 secs   av.it.:   9.5
      thresh= 8.782E-04 alpha_mix =  0.700 |ddv_scf|^2 =  1.161E-03

      iter #   3 total cpu time :     9.6 secs   av.it.:   7.8
      thresh= 3.408E-03 alpha_mix =  0.700 |ddv_scf|^2 =  4.943E-08

      iter #   4 total cpu time :    10.0 secs   av.it.:   9.8
      thresh= 2.223E-05 alpha_mix =  0.700 |ddv_scf|^2 =  5.317E-09

      iter #   5 total cpu time :    10.3 secs   av.it.:   9.4
      thresh= 7.292E-06 alpha_mix =  0.700 |ddv_scf|^2 =  2.622E-11

      iter #   6 total cpu time :    10.7 secs   av.it.:  10.1
      thresh= 5.121E-07 alpha_mix =  0.700 |ddv_scf|^2 =  2.651E-12

      iter #   7 total cpu time :    11.1 secs   av.it.:  10.2
      thresh= 1.628E-07 alpha_mix =  0.700 |ddv_scf|^2 =  6.668E-12

      iter #   8 total cpu time :    11.4 secs   av.it.:   8.3
      thresh= 2.582E-07 alpha_mix =  0.700 |ddv_scf|^2 =  3.525E-14

      iter #   9 total cpu time :    11.7 secs   av.it.:   9.2
      thresh= 1.877E-08 alpha_mix =  0.700 |ddv_scf|^2 =  1.224E-15

     End of self-consistent calculation

     Convergence has been achieved 


     Representation #   2 mode #   2

     Self-consistent Calculation

      iter #   1 total cpu time :    12.0 secs   av.it.:   6.2
      thresh= 1.000E-02 alpha_mix =  0.700 |ddv_scf|^2 =  7.712E-05

      iter #   2 total cpu time :    12.3 secs   av.it.:   9.5
      thresh= 8.782E-04 alpha_mix =  0.700 |ddv_scf|^2 =  1.161E-03

      iter #   3 total cpu time :    12.7 secs   av.it.:   7.8
      thresh= 3.408E-03 alpha_mix =  0.700 |ddv_scf|^2 =  4.943E-08

      iter #   4 total cpu time :    13.0 secs   av.it.:   9.8
      thresh= 2.223E-05 alpha_mix =  0.700 |ddv_scf|^2 =  5.317E-09

      iter #   5 total cpu time :    13.4 secs   av.it.:   9.4
      thresh= 7.292E-06 alpha_mix =  0.700 |ddv_scf|^2 =  2.622E-11

      iter #   6 total cpu time :    13.7 secs   av.it.:  10.1
      thresh= 5.121E-07 alpha_mix =  0.700 |ddv_scf|^2 =  2.650E-12

      iter #   7 total cpu time :    14.1 secs   av.it.:  10.2
      thresh= 1.628E-07 alpha_mix =  0.700 |ddv_scf|^2 =  6.660E-12

      iter #   8 total cpu time :    14.4 secs   av.it.:   8.3
      thresh= 2.581E-07 alpha_mix =  0.700 |ddv_scf|^2 =  3.525E-14

      iter #   9 total cpu time :    14.8 secs   av.it.:   9.2
      thresh= 1.878E-08 alpha_mix =  0.700 |ddv_scf|^2 =  1.224E-15

     End of self-consistent calculation

     Convergence has been achieved 


     Representation #   3 modes #   3   4

     Self-consistent Calculation

      iter #   1 total cpu time :    15.3 secs   av.it.:   5.8
      thresh= 1.000E-02 alpha_mix =  0.700 |ddv_scf|^2 =  1.534E-08

      iter #   2 total cpu time :    16.1 secs   av.it.:  11.6
      thresh= 1.239E-05 alpha_mix =  0.700 |ddv_scf|^2 =  8.811E-10

      iter #   3 total cpu time :    16.9 secs   av.it.:  11.4
      thresh= 2.968E-06 alpha_mix =  0.700 |ddv_scf|^2 =  2.341E-11

      iter #   4 total cpu time :    17.6 secs   av.it.:  10.9
      thresh= 4.839E-07 alpha_mix =  0.700 |ddv_scf|^2 =  5.868E-13

      iter #   5 total cpu time :    18.4 secs   av.it.:  11.3
      thresh= 7.660E-08 alpha_mix =  0.700 |ddv_scf|^2 =  2.029E-15

     End of self-consistent calculation

     Convergence has been achieved 


     Representation #   4 modes #   5   6

     Self-consistent Calculation

      iter #   1 total cpu time :    18.9 secs   av.it.:   5.7
      thresh= 1.000E-02 alpha_mix =  0.700 |ddv_scf|^2 =  1.535E-08

      iter #   2 total cpu time :    19.7 secs   av.it.:  11.6
      thresh= 1.239E-05 alpha_mix =  0.700 |ddv_scf|^2 =  8.833E-10

      iter #   3 total cpu time :    20.5 secs   av.it.:  11.3
      thresh= 2.972E-06 alpha_mix =  0.700 |ddv_scf|^2 =  2.340E-11

      iter #   4 total cpu time :    21.3 secs   av.it.:  10.9
      thresh= 4.838E-07 alpha_mix =  0.700 |ddv_scf|^2 =  5.881E-13

      iter #   5 total cpu time :    22.1 secs   av.it.:  11.2
      thresh= 7.669E-08 alpha_mix =  0.700 |ddv_scf|^2 =  2.025E-15

     End of self-consistent calculation

     Convergence has been achieved 

     Number of q in the star =    8
     List of q in the star:
          1  -0.250000000   0.250000000  -0.250000000
          2   0.250000000  -0.250000000  -0.250000000
          3   0.250000000  -0.250000000   0.250000000
          4   0.250000000   0.250000000   0.250000000
          5  -0.250000000  -0.250000000  -0.250000000
          6  -0.250000000  -0.250000000   0.250000000
          7  -0.250000000   0.250000000   0.250000000
          8   0.250000000   0.250000000  -0.250000000

     Diagonalizing the dynamical matrix

     q = (   -0.250000000   0.250000000  -0.250000000 ) 

 **************************************************************************
     freq (    1) =       2.813061 [THz] =      93.833626 [cm-1]
     freq (    2) =       2.813061 [THz] =      93.833626 [cm-1]
     freq (    3) =       6.885109 [THz] =     229.662524 [cm-1]
     freq (    4) =      14.454135 [THz] =     482.138039 [cm-1]
     freq (    5) =      14.769753 [THz] =     492.665931 [cm-1]
     freq (    6) =      14.769753 [THz] =     492.665931 [cm-1]
 **************************************************************************

     Mode symmetry, C_3v (3m)   point group:

     freq (   1-   2) =         93.8  [cm-1]   --> E    L_3           
     freq (   3-   3) =        229.7  [cm-1]   --> A_1  L_1           
     freq (   4-   4) =        482.1  [cm-1]   --> A_1  L_1           
     freq (   5-   6) =        492.7  [cm-1]   --> E    L_3           

     Calculation of q =    0.5000000  -0.5000000   0.5000000

     Parallelization info
     --------------------
     sticks:   dense  smooth     PW     G-vecs:    dense   smooth      PW
     Min         646     214     73                21958     4221     821
     Max         647     215     74                21962     4224     823
     Sum        2587     859    295                87843    16889    3287

     Using Slab Decomposition


     Title: 
     Phonons on a uniform q-grid                                                


     bravais-lattice index     =            2
     lattice parameter (alat)  =      10.2625  a.u.
     unit-cell volume          =     270.2088 (a.u.)^3
     number of atoms/cell      =            2
     number of atomic types    =            1
     number of electrons       =         8.00
     number of Kohn-Sham states=            4
     kinetic-energy cutoff     =      60.0000  Ry
     charge density cutoff     =     720.0000  Ry
     Exchange-correlation= PBE
                           (   1   4   3   4   0   0   0)

     celldm(1)=  10.262500  celldm(2)=   0.000000  celldm(3)=   0.000000
     celldm(4)=   0.000000  celldm(5)=   0.000000  celldm(6)=   0.000000

     crystal axes: (cart. coord. in units of alat)
               a(1) = (  -0.500000   0.000000   0.500000 )  
               a(2) = (   0.000000   0.500000   0.500000 )  
               a(3) = (  -0.500000   0.500000   0.000000 )  

     reciprocal axes: (cart. coord. in units 2 pi/alat)
               b(1) = ( -1.000000 -1.000000  1.000000 )  
               b(2) = (  1.000000  1.000000  1.000000 )  
               b(3) = ( -1.000000  1.000000 -1.000000 )  


     PseudoPot. # 1 for Si read from file:
     ../pseudo/Si.pbe-rrkj.UPF
     MD5 check sum: c5f788e1e261afac4ba18be32da5cf3b
     Pseudo is Norm-conserving, Zval =  4.0
     Generated by new atomic code, or converted to UPF format
     Using radial grid of  883 points,  3 beta functions with: 
                l(1) =   0
                l(2) =   0
                l(3) =   1

     atomic species   valence    mass     pseudopotential
        Si             4.00    28.08550     Si( 1.00)

     48 Sym. Ops., with inversion, found



   Cartesian axes

     site n.     atom                  positions (alat units)
         1           Si  tau(   1) = (   0.0000000   0.0000000   0.0000000  )
         2           Si  tau(   2) = (   0.2500000   0.2500000   0.2500000  )

     number of k points=    60
                       cart. coord. in units 2pi/alat
        k(    1) = (  -0.1250000   0.1250000   0.1250000), wk =   0.0468750
        k(    2) = (   0.3750000  -0.3750000   0.6250000), wk =   0.0000000
        k(    3) = (  -0.3750000   0.3750000  -0.1250000), wk =   0.0468750
        k(    4) = (   0.1250000  -0.1250000   0.3750000), wk =   0.0000000
        k(    5) = (   0.3750000  -0.3750000   0.6250000), wk =   0.0468750
        k(    6) = (   0.8750000  -0.8750000   1.1250000), wk =   0.0000000
        k(    7) = (   0.1250000  -0.1250000   0.3750000), wk =   0.0468750
        k(    8) = (   0.6250000  -0.6250000   0.8750000), wk =   0.0000000
        k(    9) = (  -0.1250000   0.6250000   0.1250000), wk =   0.0937500
        k(   10) = (   0.3750000   0.1250000   0.6250000), wk =   0.0000000
        k(   11) = (   0.6250000  -0.1250000   0.8750000), wk =   0.0937500
        k(   12) = (   1.1250000  -0.6250000   1.3750000), wk =   0.0000000
        k(   13) = (   0.3750000   0.1250000   0.6250000), wk =   0.0937500
        k(   14) = (   0.8750000  -0.3750000   1.1250000), wk =   0.0000000
        k(   15) = (  -0.1250000  -0.8750000   0.1250000), wk =   0.0937500
        k(   16) = (   0.3750000  -1.3750000   0.6250000), wk =   0.0000000
        k(   17) = (  -0.3750000   0.3750000   0.3750000), wk =   0.0468750
        k(   18) = (   0.1250000  -0.1250000   0.8750000), wk =   0.0000000
        k(   19) = (   0.3750000  -0.3750000   1.1250000), wk =   0.0468750
        k(   20) = (   0.8750000  -0.8750000   1.6250000), wk =   0.0000000
        k(   21) = (   0.1250000  -0.1250000   0.1250000), wk =   0.0156250
        k(   22) = (   0.6250000  -0.6250000   0.6250000), wk =   0.0000000
        k(   23) = (  -0.3750000  -0.3750000  -0.1250000), wk =   0.0937500
        k(   24) = (   0.1250000  -0.8750000   0.3750000), wk =   0.0000000
        k(   25) = (  -0.1250000  -0.3750000   0.3750000), wk =   0.0468750
        k(   26) = (   0.3750000  -0.8750000   0.8750000), wk =   0.0000000
        k(   27) = (   0.3750000   0.3750000   0.6250000), wk =   0.0937500
        k(   28) = (   0.8750000  -0.1250000   1.1250000), wk =   0.0000000
        k(   29) = (   0.6250000   0.3750000  -0.3750000), wk =   0.0468750
        k(   30) = (   1.1250000  -0.1250000   0.1250000), wk =   0.0000000
        k(   31) = (   0.1250000   0.1250000   0.3750000), wk =   0.0937500
        k(   32) = (   0.6250000  -0.3750000   0.8750000), wk =   0.0000000
        k(   33) = (   0.3750000   0.1250000  -0.1250000), wk =   0.0468750
        k(   34) = (   0.8750000  -0.3750000   0.3750000), wk =   0.0000000
        k(   35) = (  -0.1250000  -0.6250000  -0.1250000), wk =   0.0468750
        k(   36) = (   0.3750000  -1.1250000   0.3750000), wk =   0.0000000
        k(   37) = (   0.1250000  -0.6250000   0.1250000), wk =   0.0468750
        k(   38) = (   0.6250000  -1.1250000   0.6250000), wk =   0.0000000
        k(   39) = (   0.6250000   0.1250000   0.8750000), wk =   0.0937500
        k(   40) = (   1.1250000  -0.3750000   1.3750000), wk =   0.0000000
        k(   41) = (  -0.8750000   0.1250000   0.6250000), wk =   0.0937500
        k(   42) = (  -0.3750000  -0.3750000   1.1250000), wk =   0.0000000
        k(   43) = (   0.8750000   0.1250000  -0.6250000), wk =   0.0937500
        k(   44) = (   1.3750000  -0.3750000  -0.1250000), wk =   0.0000000
        k(   45) = (   0.3750000  -0.1250000   0.6250000), wk =   0.0937500
        k(   46) = (   0.8750000  -0.6250000   1.1250000), wk =   0.0000000
        k(   47) = (  -0.6250000  -0.1250000   0.3750000), wk =   0.0937500
        k(   48) = (  -0.1250000  -0.6250000   0.8750000), wk =   0.0000000
        k(   49) = (   0.6250000  -0.1250000  -0.3750000), wk =   0.0937500
        k(   50) = (   1.1250000  -0.6250000   0.1250000), wk =   0.0000000
        k(   51) = (  -0.1250000   0.8750000  -0.1250000), wk =   0.0468750
        k(   52) = (   0.3750000   0.3750000   0.3750000), wk =   0.0000000
        k(   53) = (   0.1250000   0.8750000   0.1250000), wk =   0.0468750
        k(   54) = (   0.6250000   0.3750000   0.6250000), wk =   0.0000000
        k(   55) = (   0.3750000  -0.3750000   0.3750000), wk =   0.0156250
        k(   56) = (   0.8750000  -0.8750000   0.8750000), wk =   0.0000000
        k(   57) = (   0.3750000   0.3750000   1.1250000), wk =   0.0937500
        k(   58) = (   0.8750000  -0.1250000   1.6250000), wk =   0.0000000
        k(   59) = (   1.1250000   0.3750000  -0.3750000), wk =   0.0468750
        k(   60) = (   1.6250000  -0.1250000   0.1250000), wk =   0.0000000

     Dense  grid:    87843 G-vectors     FFT dimensions: (  64,  64,  64)

     Smooth grid:    16889 G-vectors     FFT dimensions: (  36,  36,  36)

     Estimated max dynamical RAM per process >       8.07 MB

     Estimated total dynamical RAM >      32.26 MB

     The potential is recalculated from file :
     ./tmp/_ph0/Si.save/charge-density

     Starting wfcs are    8 atomic wfcs

     Band Structure Calculation
     Davidson diagonalization with overlap

     ethr =  1.25E-10,  avg # of iterations = 12.4

     total cpu time spent up to now is        1.3 secs

     End of band structure calculation

          k =-0.1250 0.1250 0.1250 (  2112 PWs)   bands (ev):

    -5.4694   4.6493   5.9401   5.9401

          k = 0.3750-0.3750 0.6250 (  2115 PWs)   bands (ev):

    -3.2527  -0.4833   3.9648   4.6706

          k =-0.3750 0.3750-0.1250 (  2117 PWs)   bands (ev):

    -4.4234   1.6392   3.9308   5.4566

          k = 0.1250-0.1250 0.3750 (  2106 PWs)   bands (ev):

    -4.9322   3.0372   4.9140   4.9971

          k = 0.3750-0.3750 0.6250 (  2115 PWs)   bands (ev):

    -3.2527  -0.4833   3.9648   4.6706

          k = 0.8750-0.8750 1.1250 (  2112 PWs)   bands (ev):

    -5.4694   4.6493   5.9401   5.9401

          k = 0.1250-0.1250 0.3750 (  2106 PWs)   bands (ev):

    -4.9322   3.0372   4.9140   4.9971

          k = 0.6250-0.6250 0.8750 (  2117 PWs)   bands (ev):

    -4.4234   1.6392   3.9308   5.4566

          k =-0.1250 0.6250 0.1250 (  2114 PWs)   bands (ev):

    -3.8823   1.3350   3.5689   4.0262

          k = 0.3750 0.1250 0.6250 (  2117 PWs)   bands (ev):

    -3.4556   0.4309   2.9232   4.3060

          k = 0.6250-0.1250 0.8750 (  2132 PWs)   bands (ev):

    -2.2050  -0.6501   2.1798   3.2770

          k = 1.1250-0.6250 1.3750 (  2117 PWs)   bands (ev):

    -4.4234   1.6392   3.9308   5.4566

          k = 0.3750 0.1250 0.6250 (  2117 PWs)   bands (ev):

    -3.4556   0.4309   2.9232   4.3060

          k = 0.8750-0.3750 1.1250 (  2114 PWs)   bands (ev):

    -3.8823   1.3350   3.5689   4.0262

          k =-0.1250-0.8750 0.1250 (  2127 PWs)   bands (ev):

    -2.3835  -0.5470   2.8023   3.5524

          k = 0.3750-1.3750 0.6250 (  2115 PWs)   bands (ev):

    -3.2527  -0.4833   3.9648   4.6706

          k =-0.3750 0.3750 0.3750 (  2114 PWs)   bands (ev):

    -3.9792   0.3165   5.1447   5.1447

          k = 0.1250-0.1250 0.8750 (  2127 PWs)   bands (ev):

    -2.3835  -0.5470   2.8023   3.5524

          k = 0.3750-0.3750 1.1250 (  2125 PWs)   bands (ev):

    -2.7493  -0.3672   2.2511   4.3471

          k = 0.8750-0.8750 1.6250 (  2114 PWs)   bands (ev):

    -3.8823   1.3350   3.5689   4.0262

          k = 0.1250-0.1250 0.1250 (  2112 PWs)   bands (ev):

    -5.4694   4.6493   5.9401   5.9401

          k = 0.6250-0.6250 0.6250 (  2114 PWs)   bands (ev):

    -3.9792   0.3165   5.1447   5.1447

          k =-0.3750-0.3750-0.1250 (  2117 PWs)   bands (ev):

    -4.4234   1.6392   3.9308   5.4566

          k = 0.1250-0.8750 0.3750 (  2132 PWs)   bands (ev):

    -2.2050  -0.6501   2.1798   3.2770

          k =-0.1250-0.3750 0.3750 (  2117 PWs)   bands (ev):

    -4.4234   1.6392   3.9308   5.4566

          k = 0.3750-0.8750 0.8750 (  2114 PWs)   bands (ev):

    -3.8823   1.3350   3.5689   4.0262

          k = 0.3750 0.3750 0.6250 (  2115 PWs)   bands (ev):

    -3.2527  -0.4833   3.9648   4.6706

          k = 0.8750-0.1250 1.1250 (  2127 PWs)   bands (ev):

    -2.3835  -0.5470   2.8023   3.5524

          k = 0.6250 0.3750-0.3750 (  2115 PWs)   bands (ev):

    -3.2527  -0.4833   3.9648   4.6706

          k = 1.1250-0.1250 0.1250 (  2127 PWs)   bands (ev):

    -2.3835  -0.5470   2.8023   3.5524

          k = 0.1250 0.1250 0.3750 (  2106 PWs)   bands (ev):

    -4.9322   3.0372   4.9140   4.9971

          k = 0.6250-0.3750 0.8750 (  2117 PWs)   bands (ev):

    -3.4556   0.4309   2.9232   4.3060

          k = 0.3750 0.1250-0.1250 (  2106 PWs)   bands (ev):

    -4.9322   3.0372   4.9140   4.9971

          k = 0.8750-0.3750 0.3750 (  2125 PWs)   bands (ev):

    -2.7493  -0.3672   2.2511   4.3471

          k =-0.1250-0.6250-0.1250 (  2114 PWs)   bands (ev):

    -3.8823   1.3350   3.5689   4.0262

          k = 0.3750-1.1250 0.3750 (  2125 PWs)   bands (ev):

    -2.7493  -0.3672   2.2511   4.3471

          k = 0.1250-0.6250 0.1250 (  2114 PWs)   bands (ev):

    -3.8823   1.3350   3.5689   4.0262

          k = 0.6250-1.1250 0.6250 (  2117 PWs)   bands (ev):

    -4.4234   1.6392   3.9308   5.4566

          k = 0.6250 0.1250 0.8750 (  2132 PWs)   bands (ev):

    -2.2050  -0.6501   2.1798   3.2770

          k = 1.1250-0.3750 1.3750 (  2117 PWs)   bands (ev):

    -3.4556   0.4309   2.9232   4.3060

          k =-0.8750 0.1250 0.6250 (  2132 PWs)   bands (ev):

    -2.2050  -0.6501   2.1798   3.2770

          k =-0.3750-0.3750 1.1250 (  2125 PWs)   bands (ev):

    -2.7493  -0.3672   2.2511   4.3471

          k = 0.8750 0.1250-0.6250 (  2132 PWs)   bands (ev):

    -2.2050  -0.6501   2.1798   3.2770

          k = 1.3750-0.3750-0.1250 (  2117 PWs)   bands (ev):

    -3.4556   0.4309   2.9232   4.3060

          k = 0.3750-0.1250 0.6250 (  2117 PWs)   bands (ev):

    -3.4556   0.4309   2.9232   4.3060

          k = 0.8750-0.6250 1.1250 (  2106 PWs)   bands (ev):

    -4.9322   3.0372   4.9140   4.9971

          k =-0.6250-0.1250 0.3750 (  2117 PWs)   bands (ev):

    -3.4556   0.4309   2.9232   4.3060

          k =-0.1250-0.6250 0.8750 (  2132 PWs)   bands (ev):

    -2.2050  -0.6501   2.1798   3.2770

          k = 0.6250-0.1250-0.3750 (  2117 PWs)   bands (ev):

    -3.4556   0.4309   2.9232   4.3060

          k = 1.1250-0.6250 0.1250 (  2132 PWs)   bands (ev):

    -2.2050  -0.6501   2.1798   3.2770

          k =-0.1250 0.8750-0.1250 (  2127 PWs)   bands (ev):

    -2.3835  -0.5470   2.8023   3.5524

          k = 0.3750 0.3750 0.3750 (  2114 PWs)   bands (ev):

    -3.9792   0.3165   5.1447   5.1447

          k = 0.1250 0.8750 0.1250 (  2127 PWs)   bands (ev):

    -2.3835  -0.5470   2.8023   3.5524

          k = 0.6250 0.3750 0.6250 (  2115 PWs)   bands (ev):

    -3.2527  -0.4833   3.9648   4.6706

          k = 0.3750-0.3750 0.3750 (  2114 PWs)   bands (ev):

    -3.9792   0.3165   5.1447   5.1447

          k = 0.8750-0.8750 0.8750 (  2112 PWs)   bands (ev):

    -5.4694   4.6493   5.9401   5.9401

          k = 0.3750 0.3750 1.1250 (  2125 PWs)   bands (ev):

    -2.7493  -0.3672   2.2511   4.3471

          k = 0.8750-0.1250 1.6250 (  2132 PWs)   bands (ev):

    -2.2050  -0.6501   2.1798   3.2770

          k = 1.1250 0.3750-0.3750 (  2125 PWs)   bands (ev):

    -2.7493  -0.3672   2.2511   4.3471

          k = 1.6250-0.1250 0.1250 (  2106 PWs)   bands (ev):

    -4.9322   3.0372   4.9140   4.9971

     highest occupied level (ev):     5.9401

     Writing config to output data dir ./tmp/_ph0/Si.save/

     Phonons on a uniform q-grid                                                

     bravais-lattice index     =            2
     lattice parameter (alat)  =      10.2625  a.u.
     unit-cell volume          =     270.2088 (a.u.)^3
     number of atoms/cell      =            2
     number of atomic types    =            1
     kinetic-energy cut-off    =      60.0000  Ry
     charge density cut-off    =     720.0000  Ry
     convergence threshold     =      1.0E-14
     beta                      =       0.7000
     number of iterations used =            4
     Exchange-correlation= PBE
                           (   1   4   3   4   0   0   0)


     celldm(1)=   10.26250  celldm(2)=    0.00000  celldm(3)=    0.00000
     celldm(4)=    0.00000  celldm(5)=    0.00000  celldm(6)=    0.00000

     crystal axes: (cart. coord. in units of alat)
               a(1) = ( -0.5000  0.0000  0.5000 )  
               a(2) = (  0.0000  0.5000  0.5000 )  
               a(3) = ( -0.5000  0.5000  0.0000 )  

     reciprocal axes: (cart. coord. in units 2 pi/alat)
               b(1) = ( -1.0000 -1.0000  1.0000 )  
               b(2) = (  1.0000  1.0000  1.0000 )  
               b(3) = ( -1.0000  1.0000 -1.0000 )  


     Atoms inside the unit cell: 

     Cartesian axes

     site n.  atom      mass           positions (alat units)
        1     Si  28.0855   tau(    1) = (    0.00000    0.00000    0.00000  )
        2     Si  28.0855   tau(    2) = (    0.25000    0.25000    0.25000  )

     Computing dynamical matrix for 
                    q = (   0.5000000  -0.5000000   0.5000000 )

     13 Sym.Ops. (with q -> -q+G )


     G cutoff = 1920.7865  (  21962 G-vectors)     FFT grid: ( 64, 64, 64)
     G cutoff =  640.2622  (   4224 G-vectors)  smooth grid: ( 36, 36, 36)
     number of k points=    60

     PseudoPot. # 1 for Si read from file:
     ../pseudo/Si.pbe-rrkj.UPF
     MD5 check sum: c5f788e1e261afac4ba18be32da5cf3b
     Pseudo is Norm-conserving, Zval =  4.0
     Generated by new atomic code, or converted to UPF format
     Using radial grid of  883 points,  3 beta functions with: 
                l(1) =   0
                l(2) =   0
                l(3) =   1


     Atomic displacements:
     There are    4 irreducible representations

     Representation     1      1 modes -  To be done

     Representation     2      1 modes -  To be done

     Representation     3      2 modes -  To be done

     Representation     4      2 modes -  To be done



     Alpha used in Ewald sum =   2.8000
     PHONON       :     21.85s CPU     22.60s WALL



     Representation #   1 mode #   1

     Self-consistent Calculation

      iter #   1 total cpu time :    22.8 secs   av.it.:   5.4
      thresh= 1.000E-02 alpha_mix =  0.700 |ddv_scf|^2 =  7.002E-07

      iter #   2 total cpu time :    23.0 secs   av.it.:   9.9
      thresh= 8.368E-05 alpha_mix =  0.700 |ddv_scf|^2 =  5.705E-07

      iter #   3 total cpu time :    23.2 secs   av.it.:   9.5
      thresh= 7.553E-05 alpha_mix =  0.700 |ddv_scf|^2 =  2.056E-10

      iter #   4 total cpu time :    23.4 secs   av.it.:   9.6
      thresh= 1.434E-06 alpha_mix =  0.700 |ddv_scf|^2 =  2.941E-12

      iter #   5 total cpu time :    23.6 secs   av.it.:   9.4
      thresh= 1.715E-07 alpha_mix =  0.700 |ddv_scf|^2 =  1.729E-14

      iter #   6 total cpu time :    23.8 secs   av.it.:   9.8
      thresh= 1.315E-08 alpha_mix =  0.700 |ddv_scf|^2 =  3.479E-16

     End of self-consistent calculation

     Convergence has been achieved 


     Representation #   2 mode #   2

     Self-consistent Calculation

      iter #   1 total cpu time :    24.0 secs   av.it.:   6.3
      thresh= 1.000E-02 alpha_mix =  0.700 |ddv_scf|^2 =  1.153E-05

      iter #   2 total cpu time :    24.2 secs   av.it.:  10.1
      thresh= 3.395E-04 alpha_mix =  0.700 |ddv_scf|^2 =  3.677E-05

      iter #   3 total cpu time :    24.5 secs   av.it.:   9.3
      thresh= 6.064E-04 alpha_mix =  0.700 |ddv_scf|^2 =  1.488E-09

      iter #   4 total cpu time :    24.7 secs   av.it.:  10.1
      thresh= 3.858E-06 alpha_mix =  0.700 |ddv_scf|^2 =  6.496E-11

      iter #   5 total cpu time :    24.9 secs   av.it.:  10.2
      thresh= 8.060E-07 alpha_mix =  0.700 |ddv_scf|^2 =  8.362E-12

      iter #   6 total cpu time :    25.4 secs   av.it.:   9.8
      thresh= 2.892E-07 alpha_mix =  0.700 |ddv_scf|^2 =  6.209E-15

     End of self-consistent calculation

     Convergence has been achieved 


     Representation #   3 modes #   3   4

     Self-consistent Calculation

      iter #   1 total cpu time :    25.7 secs   av.it.:   5.7
      thresh= 1.000E-02 alpha_mix =  0.700 |ddv_scf|^2 =  3.396E-08

      iter #   2 total cpu time :    26.1 secs   av.it.:  11.4
      thresh= 1.843E-05 alpha_mix =  0.700 |ddv_scf|^2 =  2.814E-09

      iter #   3 total cpu time :    26.6 secs   av.it.:  11.2
      thresh= 5.305E-06 alpha_mix =  0.700 |ddv_scf|^2 =  2.537E-11

      iter #   4 total cpu time :    27.0 secs   av.it.:  10.4
      thresh= 5.037E-07 alpha_mix =  0.700 |ddv_scf|^2 =  2.376E-14

      iter #   5 total cpu time :    27.5 secs   av.it.:  11.2
      thresh= 1.541E-08 alpha_mix =  0.700 |ddv_scf|^2 =  6.808E-16

     End of self-consistent calculation

     Convergence has been achieved 


     Representation #   4 modes #   5   6

     Self-consistent Calculation

      iter #   1 total cpu time :    27.8 secs   av.it.:   5.2
      thresh= 1.000E-02 alpha_mix =  0.700 |ddv_scf|^2 =  4.202E-09

      iter #   2 total cpu time :    28.2 secs   av.it.:  11.4
      thresh= 6.482E-06 alpha_mix =  0.700 |ddv_scf|^2 =  1.518E-10

      iter #   3 total cpu time :    28.6 secs   av.it.:  11.1
      thresh= 1.232E-06 alpha_mix =  0.700 |ddv_scf|^2 =  1.617E-11

      iter #   4 total cpu time :    29.1 secs   av.it.:  10.5
      thresh= 4.021E-07 alpha_mix =  0.700 |ddv_scf|^2 =  1.226E-14

      iter #   5 total cpu time :    29.5 secs   av.it.:  11.1
      thresh= 1.107E-08 alpha_mix =  0.700 |ddv_scf|^2 =  2.998E-16

     End of self-consistent calculation

     Convergence has been achieved 

     Number of q in the star =    4
     List of q in the star:
          1   0.500000000  -0.500000000   0.500000000
          2   0.500000000   0.500000000   0.500000000
          3  -0.500000000   0.500000000   0.500000000
          4   0.500000000   0.500000000  -0.500000000

     Diagonalizing the dynamical matrix

     q = (    0.500000000  -0.500000000   0.500000000 ) 

 **************************************************************************
     freq (    1) =       3.230097 [THz] =     107.744445 [cm-1]
     freq (    2) =       3.230097 [THz] =     107.744445 [cm-1]
     freq (    3) =      11.170216 [THz] =     372.598293 [cm-1]
     freq (    4) =      12.325563 [THz] =     411.136511 [cm-1]
     freq (    5) =      14.591617 [THz] =     486.723957 [cm-1]
     freq (    6) =      14.591617 [THz] =     486.723957 [cm-1]
 **************************************************************************

     Calculation of q =    0.0000000   0.5000000   0.0000000

     Parallelization info
     --------------------
     sticks:   dense  smooth     PW     G-vecs:    dense   smooth      PW
     Min         646     214     70                21958     4221     779
     Max         647     215     71                21962     4224     780
     Sum        2587     859    283                87843    16889    3119

     Using Slab Decomposition


     Title: 
     Phonons on a uniform q-grid                                                


     bravais-lattice index     =            2
     lattice parameter (alat)  =      10.2625  a.u.
     unit-cell volume          =     270.2088 (a.u.)^3
     number of atoms/cell      =            2
     number of atomic types    =            1
     number of electrons       =         8.00
     number of Kohn-Sham states=            4
     kinetic-energy cutoff     =      60.0000  Ry
     charge density cutoff     =     720.0000  Ry
     Exchange-correlation= PBE
                           (   1   4   3   4   0   0   0)

     celldm(1)=  10.262500  celldm(2)=   0.000000  celldm(3)=   0.000000
     celldm(4)=   0.000000  celldm(5)=   0.000000  celldm(6)=   0.000000

     crystal axes: (cart. coord. in units of alat)
               a(1) = (  -0.500000   0.000000   0.500000 )  
               a(2) = (   0.000000   0.500000   0.500000 )  
               a(3) = (  -0.500000   0.500000   0.000000 )  

     reciprocal axes: (cart. coord. in units 2 pi/alat)
               b(1) = ( -1.000000 -1.000000  1.000000 )  
               b(2) = (  1.000000  1.000000  1.000000 )  
               b(3) = ( -1.000000  1.000000 -1.000000 )  


     PseudoPot. # 1 for Si read from file:
     ../pseudo/Si.pbe-rrkj.UPF
     MD5 check sum: c5f788e1e261afac4ba18be32da5cf3b
     Pseudo is Norm-conserving, Zval =  4.0
     Generated by new atomic code, or converted to UPF format
     Using radial grid of  883 points,  3 beta functions with: 
                l(1) =   0
                l(2) =   0
                l(3) =   1

     atomic species   valence    mass     pseudopotential
        Si             4.00    28.08550     Si( 1.00)

     48 Sym. Ops., with inversion, found



   Cartesian axes

     site n.     atom                  positions (alat units)
         1           Si  tau(   1) = (   0.0000000   0.0000000   0.0000000  )
         2           Si  tau(   2) = (   0.2500000   0.2500000   0.2500000  )

     number of k points=    80
                       cart. coord. in units 2pi/alat
        k(    1) = (  -0.1250000   0.1250000   0.1250000), wk =   0.0312500
        k(    2) = (  -0.1250000   0.6250000   0.1250000), wk =   0.0000000
        k(    3) = (  -0.3750000   0.3750000  -0.1250000), wk =   0.0625000
        k(    4) = (  -0.3750000   0.8750000  -0.1250000), wk =   0.0000000
        k(    5) = (   0.3750000  -0.3750000   0.6250000), wk =   0.0625000
        k(    6) = (   0.3750000   0.1250000   0.6250000), wk =   0.0000000
        k(    7) = (   0.1250000  -0.1250000   0.3750000), wk =   0.0625000
        k(    8) = (   0.1250000   0.3750000   0.3750000), wk =   0.0000000
        k(    9) = (  -0.1250000   0.6250000   0.1250000), wk =   0.0312500
        k(   10) = (  -0.1250000   1.1250000   0.1250000), wk =   0.0000000
        k(   11) = (   0.6250000  -0.1250000   0.8750000), wk =   0.0625000
        k(   12) = (   0.6250000   0.3750000   0.8750000), wk =   0.0000000
        k(   13) = (   0.3750000   0.1250000   0.6250000), wk =   0.0625000
        k(   14) = (   0.3750000   0.6250000   0.6250000), wk =   0.0000000
        k(   15) = (  -0.1250000  -0.8750000   0.1250000), wk =   0.0312500
        k(   16) = (  -0.1250000  -0.3750000   0.1250000), wk =   0.0000000
        k(   17) = (  -0.3750000   0.3750000   0.3750000), wk =   0.0312500
        k(   18) = (  -0.3750000   0.8750000   0.3750000), wk =   0.0000000
        k(   19) = (   0.3750000  -0.3750000   1.1250000), wk =   0.0625000
        k(   20) = (   0.3750000   0.1250000   1.1250000), wk =   0.0000000
        k(   21) = (  -0.1250000  -0.1250000   0.1250000), wk =   0.0312500
        k(   22) = (  -0.1250000   0.3750000   0.1250000), wk =   0.0000000
        k(   23) = (   0.1250000  -0.3750000   0.3750000), wk =   0.0625000
        k(   24) = (   0.1250000   0.1250000   0.3750000), wk =   0.0000000
        k(   25) = (   0.3750000  -0.1250000   0.3750000), wk =   0.0312500
        k(   26) = (   0.3750000   0.3750000   0.3750000), wk =   0.0000000
        k(   27) = (   0.3750000   0.1250000   0.3750000), wk =   0.0312500
        k(   28) = (   0.3750000   0.6250000   0.3750000), wk =   0.0000000
        k(   29) = (  -0.6250000   0.3750000  -0.3750000), wk =   0.0625000
        k(   30) = (  -0.6250000   0.8750000  -0.3750000), wk =   0.0000000
        k(   31) = (  -0.3750000   0.6250000  -0.3750000), wk =   0.0312500
        k(   32) = (  -0.3750000   1.1250000  -0.3750000), wk =   0.0000000
        k(   33) = (  -0.3750000  -0.6250000  -0.3750000), wk =   0.0312500
        k(   34) = (  -0.3750000  -0.1250000  -0.3750000), wk =   0.0000000
        k(   35) = (  -0.3750000   0.1250000  -0.1250000), wk =   0.0625000
        k(   36) = (  -0.3750000   0.6250000  -0.1250000), wk =   0.0000000
        k(   37) = (  -0.1250000   0.3750000  -0.1250000), wk =   0.0312500
        k(   38) = (  -0.1250000   0.8750000  -0.1250000), wk =   0.0000000
        k(   39) = (  -0.1250000  -0.3750000  -0.1250000), wk =   0.0312500
        k(   40) = (  -0.1250000   0.1250000  -0.1250000), wk =   0.0000000
        k(   41) = (  -0.1250000  -0.6250000   0.1250000), wk =   0.0312500
        k(   42) = (  -0.1250000  -0.1250000   0.1250000), wk =   0.0000000
        k(   43) = (   0.6250000  -0.1250000  -0.1250000), wk =   0.0625000
        k(   44) = (   0.6250000   0.3750000  -0.1250000), wk =   0.0000000
        k(   45) = (   0.6250000   0.1250000   0.1250000), wk =   0.0625000
        k(   46) = (   0.6250000   0.6250000   0.1250000), wk =   0.0000000
        k(   47) = (  -0.8750000   0.1250000  -0.6250000), wk =   0.0625000
        k(   48) = (  -0.8750000   0.6250000  -0.6250000), wk =   0.0000000
        k(   49) = (  -0.1250000   0.6250000  -0.8750000), wk =   0.0625000
        k(   50) = (  -0.1250000   1.1250000  -0.8750000), wk =   0.0000000
        k(   51) = (  -0.1250000   0.8750000  -0.6250000), wk =   0.0625000
        k(   52) = (  -0.1250000   1.3750000  -0.6250000), wk =   0.0000000
        k(   53) = (  -0.1250000  -0.8750000  -0.6250000), wk =   0.0625000
        k(   54) = (  -0.1250000  -0.3750000  -0.6250000), wk =   0.0000000
        k(   55) = (   0.8750000  -0.6250000   0.1250000), wk =   0.0625000
        k(   56) = (   0.8750000  -0.1250000   0.1250000), wk =   0.0000000
        k(   57) = (  -0.6250000  -0.1250000  -0.3750000), wk =   0.0625000
        k(   58) = (  -0.6250000   0.3750000  -0.3750000), wk =   0.0000000
        k(   59) = (   0.1250000   0.3750000  -0.6250000), wk =   0.0625000
        k(   60) = (   0.1250000   0.8750000  -0.6250000), wk =   0.0000000
        k(   61) = (   0.1250000   0.6250000  -0.3750000), wk =   0.0625000
        k(   62) = (   0.1250000   1.1250000  -0.3750000), wk =   0.0000000
        k(   63) = (   0.1250000  -0.6250000  -0.3750000), wk =   0.0625000
        k(   64) = (   0.1250000  -0.1250000  -0.3750000), wk =   0.0000000
        k(   65) = (   0.6250000  -0.3750000  -0.1250000), wk =   0.0625000
        k(   66) = (   0.6250000   0.1250000  -0.1250000), wk =   0.0000000
        k(   67) = (  -0.1250000   0.8750000   0.1250000), wk =   0.0312500
        k(   68) = (  -0.1250000   1.3750000   0.1250000), wk =   0.0000000
        k(   69) = (  -0.8750000  -0.1250000  -0.1250000), wk =   0.0625000
        k(   70) = (  -0.8750000   0.3750000  -0.1250000), wk =   0.0000000
        k(   71) = (  -0.8750000   0.1250000   0.1250000), wk =   0.0625000
        k(   72) = (  -0.8750000   0.6250000   0.1250000), wk =   0.0000000
        k(   73) = (  -0.3750000  -0.3750000   0.3750000), wk =   0.0312500
        k(   74) = (  -0.3750000   0.1250000   0.3750000), wk =   0.0000000
        k(   75) = (  -1.1250000   0.3750000  -0.3750000), wk =   0.0625000
        k(   76) = (  -1.1250000   0.8750000  -0.3750000), wk =   0.0000000
        k(   77) = (  -0.3750000   1.1250000  -0.3750000), wk =   0.0312500
        k(   78) = (  -0.3750000   1.6250000  -0.3750000), wk =   0.0000000
        k(   79) = (  -0.3750000  -1.1250000  -0.3750000), wk =   0.0312500
        k(   80) = (  -0.3750000  -0.6250000  -0.3750000), wk =   0.0000000

     Dense  grid:    87843 G-vectors     FFT dimensions: (  64,  64,  64)

     Smooth grid:    16889 G-vectors     FFT dimensions: (  36,  36,  36)

     Estimated max dynamical RAM per process >       8.06 MB

     Estimated total dynamical RAM >      32.25 MB

     The potential is recalculated from file :
     ./tmp/_ph0/Si.save/charge-density

     Starting wfcs are    8 atomic wfcs

     Band Structure Calculation
     Davidson diagonalization with overlap

     ethr =  1.25E-10,  avg # of iterations = 12.4

     total cpu time spent up to now is        1.8 secs

     End of band structure calculation

          k =-0.1250 0.1250 0.1250 (  2112 PWs)   bands (ev):

    -5.4694   4.6493   5.9401   5.9401

          k =-0.1250 0.6250 0.1250 (  2114 PWs)   bands (ev):

    -3.8823   1.3350   3.5689   4.0262

          k =-0.3750 0.3750-0.1250 (  2117 PWs)   bands (ev):

    -4.4234   1.6392   3.9308   5.4566

          k =-0.3750 0.8750-0.1250 (  2132 PWs)   bands (ev):

    -2.2050  -0.6501   2.1798   3.2770

          k = 0.3750-0.3750 0.6250 (  2115 PWs)   bands (ev):

    -3.2527  -0.4833   3.9648   4.6706

          k = 0.3750 0.1250 0.6250 (  2117 PWs)   bands (ev):

    -3.4556   0.4309   2.9232   4.3060

          k = 0.1250-0.1250 0.3750 (  2106 PWs)   bands (ev):

    -4.9322   3.0372   4.9140   4.9971

          k = 0.1250 0.3750 0.3750 (  2117 PWs)   bands (ev):

    -4.4234   1.6392   3.9308   5.4566

          k =-0.1250 0.6250 0.1250 (  2114 PWs)   bands (ev):

    -3.8823   1.3350   3.5689   4.0262

          k =-0.1250 1.1250 0.1250 (  2127 PWs)   bands (ev):

    -2.3835  -0.5470   2.8023   3.5524

          k = 0.6250-0.1250 0.8750 (  2132 PWs)   bands (ev):

    -2.2050  -0.6501   2.1798   3.2770

          k = 0.6250 0.3750 0.8750 (  2117 PWs)   bands (ev):

    -3.4556   0.4309   2.9232   4.3060

          k = 0.3750 0.1250 0.6250 (  2117 PWs)   bands (ev):

    -3.4556   0.4309   2.9232   4.3060

          k = 0.3750 0.6250 0.6250 (  2115 PWs)   bands (ev):

    -3.2527  -0.4833   3.9648   4.6706

          k =-0.1250-0.8750 0.1250 (  2127 PWs)   bands (ev):

    -2.3835  -0.5470   2.8023   3.5524

          k =-0.1250-0.3750 0.1250 (  2106 PWs)   bands (ev):

    -4.9322   3.0372   4.9140   4.9971

          k =-0.3750 0.3750 0.3750 (  2114 PWs)   bands (ev):

    -3.9792   0.3165   5.1447   5.1447

          k =-0.3750 0.8750 0.3750 (  2125 PWs)   bands (ev):

    -2.7493  -0.3672   2.2511   4.3471

          k = 0.3750-0.3750 1.1250 (  2125 PWs)   bands (ev):

    -2.7493  -0.3672   2.2511   4.3471

          k = 0.3750 0.1250 1.1250 (  2132 PWs)   bands (ev):

    -2.2050  -0.6501   2.1798   3.2770

          k =-0.1250-0.1250 0.1250 (  2112 PWs)   bands (ev):

    -5.4694   4.6493   5.9401   5.9401

          k =-0.1250 0.3750 0.1250 (  2106 PWs)   bands (ev):

    -4.9322   3.0372   4.9140   4.9971

          k = 0.1250-0.3750 0.3750 (  2117 PWs)   bands (ev):

    -4.4234   1.6392   3.9308   5.4566

          k = 0.1250 0.1250 0.3750 (  2106 PWs)   bands (ev):

    -4.9322   3.0372   4.9140   4.9971

          k = 0.3750-0.1250 0.3750 (  2117 PWs)   bands (ev):

    -4.4234   1.6392   3.9308   5.4566

          k = 0.3750 0.3750 0.3750 (  2114 PWs)   bands (ev):

    -3.9792   0.3165   5.1447   5.1447

          k = 0.3750 0.1250 0.3750 (  2117 PWs)   bands (ev):

    -4.4234   1.6392   3.9308   5.4566

          k = 0.3750 0.6250 0.3750 (  2115 PWs)   bands (ev):

    -3.2527  -0.4833   3.9648   4.6706

          k =-0.6250 0.3750-0.3750 (  2115 PWs)   bands (ev):

    -3.2527  -0.4833   3.9648   4.6706

          k =-0.6250 0.8750-0.3750 (  2117 PWs)   bands (ev):

    -3.4556   0.4309   2.9232   4.3060

          k =-0.3750 0.6250-0.3750 (  2115 PWs)   bands (ev):

    -3.2527  -0.4833   3.9648   4.6706

          k =-0.3750 1.1250-0.3750 (  2125 PWs)   bands (ev):

    -2.7493  -0.3672   2.2511   4.3471

          k =-0.3750-0.6250-0.3750 (  2115 PWs)   bands (ev):

    -3.2527  -0.4833   3.9648   4.6706

          k =-0.3750-0.1250-0.3750 (  2117 PWs)   bands (ev):

    -4.4234   1.6392   3.9308   5.4566

          k =-0.3750 0.1250-0.1250 (  2106 PWs)   bands (ev):

    -4.9322   3.0372   4.9140   4.9971

          k =-0.3750 0.6250-0.1250 (  2117 PWs)   bands (ev):

    -3.4556   0.4309   2.9232   4.3060

          k =-0.1250 0.3750-0.1250 (  2106 PWs)   bands (ev):

    -4.9322   3.0372   4.9140   4.9971

          k =-0.1250 0.8750-0.1250 (  2127 PWs)   bands (ev):

    -2.3835  -0.5470   2.8023   3.5524

          k =-0.1250-0.3750-0.1250 (  2106 PWs)   bands (ev):

    -4.9322   3.0372   4.9140   4.9971

          k =-0.1250 0.1250-0.1250 (  2112 PWs)   bands (ev):

    -5.4694   4.6493   5.9401   5.9401

          k =-0.1250-0.6250 0.1250 (  2114 PWs)   bands (ev):

    -3.8823   1.3350   3.5689   4.0262

          k =-0.1250-0.1250 0.1250 (  2112 PWs)   bands (ev):

    -5.4694   4.6493   5.9401   5.9401

          k = 0.6250-0.1250-0.1250 (  2114 PWs)   bands (ev):

    -3.8823   1.3350   3.5689   4.0262

          k = 0.6250 0.3750-0.1250 (  2117 PWs)   bands (ev):

    -3.4556   0.4309   2.9232   4.3060

          k = 0.6250 0.1250 0.1250 (  2114 PWs)   bands (ev):

    -3.8823   1.3350   3.5689   4.0262

          k = 0.6250 0.6250 0.1250 (  2125 PWs)   bands (ev):

    -2.7493  -0.3672   2.2511   4.3471

          k =-0.8750 0.1250-0.6250 (  2132 PWs)   bands (ev):

    -2.2050  -0.6501   2.1798   3.2770

          k =-0.8750 0.6250-0.6250 (  2117 PWs)   bands (ev):

    -4.4234   1.6392   3.9308   5.4566

          k =-0.1250 0.6250-0.8750 (  2132 PWs)   bands (ev):

    -2.2050  -0.6501   2.1798   3.2770

          k =-0.1250 1.1250-0.8750 (  2127 PWs)   bands (ev):

    -2.3835  -0.5470   2.8023   3.5524

          k =-0.1250 0.8750-0.6250 (  2132 PWs)   bands (ev):

    -2.2050  -0.6501   2.1798   3.2770

          k =-0.1250 1.3750-0.6250 (  2125 PWs)   bands (ev):

    -2.7493  -0.3672   2.2511   4.3471

          k =-0.1250-0.8750-0.6250 (  2132 PWs)   bands (ev):

    -2.2050  -0.6501   2.1798   3.2770

          k =-0.1250-0.3750-0.6250 (  2117 PWs)   bands (ev):

    -3.4556   0.4309   2.9232   4.3060

          k = 0.8750-0.6250 0.1250 (  2132 PWs)   bands (ev):

    -2.2050  -0.6501   2.1798   3.2770

          k = 0.8750-0.1250 0.1250 (  2127 PWs)   bands (ev):

    -2.3835  -0.5470   2.8023   3.5524

          k =-0.6250-0.1250-0.3750 (  2117 PWs)   bands (ev):

    -3.4556   0.4309   2.9232   4.3060

          k =-0.6250 0.3750-0.3750 (  2115 PWs)   bands (ev):

    -3.2527  -0.4833   3.9648   4.6706

          k = 0.1250 0.3750-0.6250 (  2117 PWs)   bands (ev):

    -3.4556   0.4309   2.9232   4.3060

          k = 0.1250 0.8750-0.6250 (  2132 PWs)   bands (ev):

    -2.2050  -0.6501   2.1798   3.2770

          k = 0.1250 0.6250-0.3750 (  2117 PWs)   bands (ev):

    -3.4556   0.4309   2.9232   4.3060

          k = 0.1250 1.1250-0.3750 (  2132 PWs)   bands (ev):

    -2.2050  -0.6501   2.1798   3.2770

          k = 0.1250-0.6250-0.3750 (  2117 PWs)   bands (ev):

    -3.4556   0.4309   2.9232   4.3060

          k = 0.1250-0.1250-0.3750 (  2106 PWs)   bands (ev):

    -4.9322   3.0372   4.9140   4.9971

          k = 0.6250-0.3750-0.1250 (  2117 PWs)   bands (ev):

    -3.4556   0.4309   2.9232   4.3060

          k = 0.6250 0.1250-0.1250 (  2114 PWs)   bands (ev):

    -3.8823   1.3350   3.5689   4.0262

          k =-0.1250 0.8750 0.1250 (  2127 PWs)   bands (ev):

    -2.3835  -0.5470   2.8023   3.5524

          k =-0.1250 1.3750 0.1250 (  2114 PWs)   bands (ev):

    -3.8823   1.3350   3.5689   4.0262

          k =-0.8750-0.1250-0.1250 (  2127 PWs)   bands (ev):

    -2.3835  -0.5470   2.8023   3.5524

          k =-0.8750 0.3750-0.1250 (  2132 PWs)   bands (ev):

    -2.2050  -0.6501   2.1798   3.2770

          k =-0.8750 0.1250 0.1250 (  2127 PWs)   bands (ev):

    -2.3835  -0.5470   2.8023   3.5524

          k =-0.8750 0.6250 0.1250 (  2132 PWs)   bands (ev):

    -2.2050  -0.6501   2.1798   3.2770

          k =-0.3750-0.3750 0.3750 (  2114 PWs)   bands (ev):

    -3.9792   0.3165   5.1447   5.1447

          k =-0.3750 0.1250 0.3750 (  2117 PWs)   bands (ev):

    -4.4234   1.6392   3.9308   5.4566

          k =-1.1250 0.3750-0.3750 (  2125 PWs)   bands (ev):

    -2.7493  -0.3672   2.2511   4.3471

          k =-1.1250 0.8750-0.3750 (  2114 PWs)   bands (ev):

    -3.8823   1.3350   3.5689   4.0262

          k =-0.3750 1.1250-0.3750 (  2125 PWs)   bands (ev):

    -2.7493  -0.3672   2.2511   4.3471

          k =-0.3750 1.6250-0.3750 (  2114 PWs)   bands (ev):

    -3.9792   0.3165   5.1447   5.1447

          k =-0.3750-1.1250-0.3750 (  2125 PWs)   bands (ev):

    -2.7493  -0.3672   2.2511   4.3471

          k =-0.3750-0.6250-0.3750 (  2115 PWs)   bands (ev):

    -3.2527  -0.4833   3.9648   4.6706

     highest occupied level (ev):     5.9401

     Writing config to output data dir ./tmp/_ph0/Si.save/

     Phonons on a uniform q-grid                                                

     bravais-lattice index     =            2
     lattice parameter (alat)  =      10.2625  a.u.
     unit-cell volume          =     270.2088 (a.u.)^3
     number of atoms/cell      =            2
     number of atomic types    =            1
     kinetic-energy cut-off    =      60.0000  Ry
     charge density cut-off    =     720.0000  Ry
     convergence threshold     =      1.0E-14
     beta                      =       0.7000
     number of iterations used =            4
     Exchange-correlation= PBE
                           (   1   4   3   4   0   0   0)


     celldm(1)=   10.26250  celldm(2)=    0.00000  celldm(3)=    0.00000
     celldm(4)=    0.00000  celldm(5)=    0.00000  celldm(6)=    0.00000

     crystal axes: (cart. coord. in units of alat)
               a(1) = ( -0.5000  0.0000  0.5000 )  
               a(2) = (  0.0000  0.5000  0.5000 )  
               a(3) = ( -0.5000  0.5000  0.0000 )  

     reciprocal axes: (cart. coord. in units 2 pi/alat)
               b(1) = ( -1.0000 -1.0000  1.0000 )  
               b(2) = (  1.0000  1.0000  1.0000 )  
               b(3) = ( -1.0000  1.0000 -1.0000 )  


     Atoms inside the unit cell: 

     Cartesian axes

     site n.  atom      mass           positions (alat units)
        1     Si  28.0855   tau(    1) = (    0.00000    0.00000    0.00000  )
        2     Si  28.0855   tau(    2) = (    0.25000    0.25000    0.25000  )

     Computing dynamical matrix for 
                    q = (   0.0000000   0.5000000   0.0000000 )

      8 Sym.Ops. (no q -> -q+G )


     G cutoff = 1920.7865  (  21962 G-vectors)     FFT grid: ( 64, 64, 64)
     G cutoff =  640.2622  (   4224 G-vectors)  smooth grid: ( 36, 36, 36)
     number of k points=    80

     PseudoPot. # 1 for Si read from file:
     ../pseudo/Si.pbe-rrkj.UPF
     MD5 check sum: c5f788e1e261afac4ba18be32da5cf3b
     Pseudo is Norm-conserving, Zval =  4.0
     Generated by new atomic code, or converted to UPF format
     Using radial grid of  883 points,  3 beta functions with: 
                l(1) =   0
                l(2) =   0
                l(3) =   1

     Mode symmetry, C_4v (4mm)  point group:


     Atomic displacements:
     There are    4 irreducible representations

     Representation     1      1 modes -  To be done

     Representation     2      1 modes -  To be done

     Representation     3      2 modes -  To be done

     Representation     4      2 modes -  To be done



     Alpha used in Ewald sum =   2.8000
     PHONON       :     29.10s CPU     30.16s WALL



     Representation #   1 mode #   1

     Self-consistent Calculation

      iter #   1 total cpu time :    30.4 secs   av.it.:   6.5
      thresh= 1.000E-02 alpha_mix =  0.700 |ddv_scf|^2 =  9.195E-05

      iter #   2 total cpu time :    30.6 secs   av.it.:   9.8
      thresh= 9.589E-04 alpha_mix =  0.700 |ddv_scf|^2 =  1.196E-03

      iter #   3 total cpu time :    30.8 secs   av.it.:   8.3
      thresh= 3.458E-03 alpha_mix =  0.700 |ddv_scf|^2 =  9.533E-10

      iter #   4 total cpu time :    31.1 secs   av.it.:  10.6
      thresh= 3.088E-06 alpha_mix =  0.700 |ddv_scf|^2 =  1.588E-10

      iter #   5 total cpu time :    31.4 secs   av.it.:  10.1
      thresh= 1.260E-06 alpha_mix =  0.700 |ddv_scf|^2 =  9.272E-12

      iter #   6 total cpu time :    31.6 secs   av.it.:   9.5
      thresh= 3.045E-07 alpha_mix =  0.700 |ddv_scf|^2 =  1.391E-14

      iter #   7 total cpu time :    31.9 secs   av.it.:   9.5
      thresh= 1.179E-08 alpha_mix =  0.700 |ddv_scf|^2 =  2.665E-16

     End of self-consistent calculation

     Convergence has been achieved 


     Representation #   2 mode #   2

     Self-consistent Calculation

      iter #   1 total cpu time :    32.1 secs   av.it.:   5.7
      thresh= 1.000E-02 alpha_mix =  0.700 |ddv_scf|^2 =  1.643E-07

      iter #   2 total cpu time :    32.4 secs   av.it.:  10.6
      thresh= 4.053E-05 alpha_mix =  0.700 |ddv_scf|^2 =  3.559E-08

      iter #   3 total cpu time :    32.6 secs   av.it.:  10.2
      thresh= 1.887E-05 alpha_mix =  0.700 |ddv_scf|^2 =  2.559E-10

      iter #   4 total cpu time :    32.9 secs   av.it.:  10.3
      thresh= 1.600E-06 alpha_mix =  0.700 |ddv_scf|^2 =  1.946E-11

      iter #   5 total cpu time :    33.2 secs   av.it.:   9.9
      thresh= 4.411E-07 alpha_mix =  0.700 |ddv_scf|^2 =  5.214E-14

      iter #   6 total cpu time :    33.4 secs   av.it.:  10.1
      thresh= 2.283E-08 alpha_mix =  0.700 |ddv_scf|^2 =  9.281E-16

     End of self-consistent calculation

     Convergence has been achieved 


     Representation #   3 modes #   3   4

     Self-consistent Calculation

      iter #   1 total cpu time :    33.8 secs   av.it.:   5.8
      thresh= 1.000E-02 alpha_mix =  0.700 |ddv_scf|^2 =  3.703E-08

      iter #   2 total cpu time :    34.3 secs   av.it.:  11.5
      thresh= 1.924E-05 alpha_mix =  0.700 |ddv_scf|^2 =  5.624E-09

      iter #   3 total cpu time :    34.9 secs   av.it.:  11.2
      thresh= 7.500E-06 alpha_mix =  0.700 |ddv_scf|^2 =  2.967E-11

      iter #   4 total cpu time :    35.4 secs   av.it.:  10.6
      thresh= 5.447E-07 alpha_mix =  0.700 |ddv_scf|^2 =  5.681E-13

      iter #   5 total cpu time :    36.0 secs   av.it.:  10.5
      thresh= 7.537E-08 alpha_mix =  0.700 |ddv_scf|^2 =  1.714E-15

     End of self-consistent calculation

     Convergence has been achieved 


     Representation #   4 modes #   5   6

     Self-consistent Calculation

      iter #   1 total cpu time :    36.3 secs   av.it.:   5.7
      thresh= 1.000E-02 alpha_mix =  0.700 |ddv_scf|^2 =  2.460E-08

      iter #   2 total cpu time :    36.9 secs   av.it.:  11.5
      thresh= 1.568E-05 alpha_mix =  0.700 |ddv_scf|^2 =  3.648E-09

      iter #   3 total cpu time :    37.5 secs   av.it.:  11.2
      thresh= 6.040E-06 alpha_mix =  0.700 |ddv_scf|^2 =  2.961E-11

      iter #   4 total cpu time :    38.0 secs   av.it.:  10.6
      thresh= 5.442E-07 alpha_mix =  0.700 |ddv_scf|^2 =  7.718E-13

      iter #   5 total cpu time :    38.5 secs   av.it.:  10.6
      thresh= 8.785E-08 alpha_mix =  0.700 |ddv_scf|^2 =  1.799E-15

     End of self-consistent calculation

     Convergence has been achieved 

     Number of q in the star =    6
     List of q in the star:
          1   0.000000000   0.500000000   0.000000000
          2   0.000000000  -0.500000000   0.000000000
          3   0.500000000   0.000000000   0.000000000
          4   0.000000000   0.000000000   0.500000000
          5   0.000000000   0.000000000  -0.500000000
          6  -0.500000000   0.000000000   0.000000000

     Diagonalizing the dynamical matrix

     q = (    0.000000000   0.500000000   0.000000000 ) 

 **************************************************************************
     freq (    1) =       3.772542 [THz] =     125.838472 [cm-1]
     freq (    2) =       3.772542 [THz] =     125.838472 [cm-1]
     freq (    3) =       7.196272 [THz] =     240.041781 [cm-1]
     freq (    4) =      14.139554 [THz] =     471.644738 [cm-1]
     freq (    5) =      14.139554 [THz] =     471.644738 [cm-1]
     freq (    6) =      14.688409 [THz] =     489.952596 [cm-1]
 **************************************************************************

     Mode symmetry, C_4v (4mm)  point group:

     freq (   1-   2) =        125.8  [cm-1]   --> E    G_5 D_5       
     freq (   3-   3) =        240.0  [cm-1]   --> A_1  G_1 D_1       
     freq (   4-   5) =        471.6  [cm-1]   --> E    G_5 D_5       
     freq (   6-   6) =        490.0  [cm-1]   --> B_2  G_4 D_2'      

     Calculation of q =    0.7500000  -0.2500000   0.7500000

     Parallelization info
     --------------------
     sticks:   dense  smooth     PW     G-vecs:    dense   smooth      PW
     Min         646     214     75                21958     4221     869
     Max         647     215     76                21962     4224     872
     Sum        2587     859    301                87843    16889    3479

     Using Slab Decomposition


     Title: 
     Phonons on a uniform q-grid                                                


     bravais-lattice index     =            2
     lattice parameter (alat)  =      10.2625  a.u.
     unit-cell volume          =     270.2088 (a.u.)^3
     number of atoms/cell      =            2
     number of atomic types    =            1
     number of electrons       =         8.00
     number of Kohn-Sham states=            4
     kinetic-energy cutoff     =      60.0000  Ry
     charge density cutoff     =     720.0000  Ry
     Exchange-correlation= PBE
                           (   1   4   3   4   0   0   0)

     celldm(1)=  10.262500  celldm(2)=   0.000000  celldm(3)=   0.000000
     celldm(4)=   0.000000  celldm(5)=   0.000000  celldm(6)=   0.000000

     crystal axes: (cart. coord. in units of alat)
               a(1) = (  -0.500000   0.000000   0.500000 )  
               a(2) = (   0.000000   0.500000   0.500000 )  
               a(3) = (  -0.500000   0.500000   0.000000 )  

     reciprocal axes: (cart. coord. in units 2 pi/alat)
               b(1) = ( -1.000000 -1.000000  1.000000 )  
               b(2) = (  1.000000  1.000000  1.000000 )  
               b(3) = ( -1.000000  1.000000 -1.000000 )  


     PseudoPot. # 1 for Si read from file:
     ../pseudo/Si.pbe-rrkj.UPF
     MD5 check sum: c5f788e1e261afac4ba18be32da5cf3b
     Pseudo is Norm-conserving, Zval =  4.0
     Generated by new atomic code, or converted to UPF format
     Using radial grid of  883 points,  3 beta functions with: 
                l(1) =   0
                l(2) =   0
                l(3) =   1

     atomic species   valence    mass     pseudopotential
        Si             4.00    28.08550     Si( 1.00)

     48 Sym. Ops., with inversion, found



   Cartesian axes

     site n.     atom                  positions (alat units)
         1           Si  tau(   1) = (   0.0000000   0.0000000   0.0000000  )
         2           Si  tau(   2) = (   0.2500000   0.2500000   0.2500000  )

     number of k points=   288

     Number of k-points >= 100: set verbosity='high' to print them.

     Dense  grid:    87843 G-vectors     FFT dimensions: (  64,  64,  64)

     Smooth grid:    16889 G-vectors     FFT dimensions: (  36,  36,  36)

     Estimated max dynamical RAM per process >       8.07 MB

     Estimated total dynamical RAM >      32.27 MB

     The potential is recalculated from file :
     ./tmp/_ph0/Si.save/charge-density

     Starting wfcs are    8 atomic wfcs

     Band Structure Calculation
     Davidson diagonalization with overlap

     ethr =  1.25E-10,  avg # of iterations = 12.4

     total cpu time spent up to now is        3.8 secs

     End of band structure calculation

     Number of k-points >= 100: set verbosity='high' to print the bands.

     highest occupied level (ev):     5.9401

     Writing config to output data dir ./tmp/_ph0/Si.save/

     Phonons on a uniform q-grid                                                

     bravais-lattice index     =            2
     lattice parameter (alat)  =      10.2625  a.u.
     unit-cell volume          =     270.2088 (a.u.)^3
     number of atoms/cell      =            2
     number of atomic types    =            1
     kinetic-energy cut-off    =      60.0000  Ry
     charge density cut-off    =     720.0000  Ry
     convergence threshold     =      1.0E-14
     beta                      =       0.7000
     number of iterations used =            4
     Exchange-correlation= PBE
                           (   1   4   3   4   0   0   0)


     celldm(1)=   10.26250  celldm(2)=    0.00000  celldm(3)=    0.00000
     celldm(4)=    0.00000  celldm(5)=    0.00000  celldm(6)=    0.00000

     crystal axes: (cart. coord. in units of alat)
               a(1) = ( -0.5000  0.0000  0.5000 )  
               a(2) = (  0.0000  0.5000  0.5000 )  
               a(3) = ( -0.5000  0.5000  0.0000 )  

     reciprocal axes: (cart. coord. in units 2 pi/alat)
               b(1) = ( -1.0000 -1.0000  1.0000 )  
               b(2) = (  1.0000  1.0000  1.0000 )  
               b(3) = ( -1.0000  1.0000 -1.0000 )  


     Atoms inside the unit cell: 

     Cartesian axes

     site n.  atom      mass           positions (alat units)
        1     Si  28.0855   tau(    1) = (    0.00000    0.00000    0.00000  )
        2     Si  28.0855   tau(    2) = (    0.25000    0.25000    0.25000  )

     Computing dynamical matrix for 
                    q = (   0.7500000  -0.2500000   0.7500000 )

      2 Sym.Ops. (no q -> -q+G )


     G cutoff = 1920.7865  (  21962 G-vectors)     FFT grid: ( 64, 64, 64)
     G cutoff =  640.2622  (   4224 G-vectors)  smooth grid: ( 36, 36, 36)
     number of k points=   288

     PseudoPot. # 1 for Si read from file:
     ../pseudo/Si.pbe-rrkj.UPF
     MD5 check sum: c5f788e1e261afac4ba18be32da5cf3b
     Pseudo is Norm-conserving, Zval =  4.0
     Generated by new atomic code, or converted to UPF format
     Using radial grid of  883 points,  3 beta functions with: 
                l(1) =   0
                l(2) =   0
                l(3) =   1

     Mode symmetry, C_s (m)     point group:


     Atomic displacements:
     There are    6 irreducible representations

     Representation     1      1 modes -  To be done

     Representation     2      1 modes -  To be done

     Representation     3      1 modes -  To be done

     Representation     4      1 modes -  To be done

     Representation     5      1 modes -  To be done

     Representation     6      1 modes -  To be done



     Alpha used in Ewald sum =   2.8000
     PHONON       :     39.24s CPU     40.61s WALL



     Representation #   1 mode #   1

     Self-consistent Calculation

      iter #   1 total cpu time :    41.2 secs   av.it.:   6.2
      thresh= 1.000E-02 alpha_mix =  0.700 |ddv_scf|^2 =  3.988E-06

      iter #   2 total cpu time :    42.1 secs   av.it.:  10.6
      thresh= 1.997E-04 alpha_mix =  0.700 |ddv_scf|^2 =  1.131E-05

      iter #   3 total cpu time :    42.9 secs   av.it.:   9.6
      thresh= 3.363E-04 alpha_mix =  0.700 |ddv_scf|^2 =  4.309E-08

      iter #   4 total cpu time :    43.7 secs   av.it.:  10.1
      thresh= 2.076E-05 alpha_mix =  0.700 |ddv_scf|^2 =  2.913E-10

      iter #   5 total cpu time :    44.6 secs   av.it.:  10.5
      thresh= 1.707E-06 alpha_mix =  0.700 |ddv_scf|^2 =  4.208E-11

      iter #   6 total cpu time :    45.4 secs   av.it.:  10.5
      thresh= 6.487E-07 alpha_mix =  0.700 |ddv_scf|^2 =  2.821E-12

      iter #   7 total cpu time :    46.3 secs   av.it.:  10.5
      thresh= 1.680E-07 alpha_mix =  0.700 |ddv_scf|^2 =  4.032E-14

      iter #   8 total cpu time :    47.2 secs   av.it.:  10.7
      thresh= 2.008E-08 alpha_mix =  0.700 |ddv_scf|^2 =  1.069E-15

     End of self-consistent calculation

     Convergence has been achieved 


     Representation #   2 mode #   2

     Self-consistent Calculation

      iter #   1 total cpu time :    47.8 secs   av.it.:   6.1
      thresh= 1.000E-02 alpha_mix =  0.700 |ddv_scf|^2 =  2.434E-06

      iter #   2 total cpu time :    48.7 secs   av.it.:  10.6
      thresh= 1.560E-04 alpha_mix =  0.700 |ddv_scf|^2 =  6.712E-06

      iter #   3 total cpu time :    49.5 secs   av.it.:   9.6
      thresh= 2.591E-04 alpha_mix =  0.700 |ddv_scf|^2 =  2.361E-08

      iter #   4 total cpu time :    50.3 secs   av.it.:  10.3
      thresh= 1.536E-05 alpha_mix =  0.700 |ddv_scf|^2 =  2.615E-10

      iter #   5 total cpu time :    51.2 secs   av.it.:  10.4
      thresh= 1.617E-06 alpha_mix =  0.700 |ddv_scf|^2 =  6.967E-11

      iter #   6 total cpu time :    52.0 secs   av.it.:  10.4
      thresh= 8.347E-07 alpha_mix =  0.700 |ddv_scf|^2 =  4.418E-12

      iter #   7 total cpu time :    52.9 secs   av.it.:  10.5
      thresh= 2.102E-07 alpha_mix =  0.700 |ddv_scf|^2 =  1.223E-13

      iter #   8 total cpu time :    53.8 secs   av.it.:  10.7
      thresh= 3.497E-08 alpha_mix =  0.700 |ddv_scf|^2 =  2.307E-15

     End of self-consistent calculation

     Convergence has been achieved 


     Representation #   3 mode #   3

     Self-consistent Calculation

      iter #   1 total cpu time :    54.4 secs   av.it.:   6.2
      thresh= 1.000E-02 alpha_mix =  0.700 |ddv_scf|^2 =  2.317E-06

      iter #   2 total cpu time :    55.2 secs   av.it.:  10.7
      thresh= 1.522E-04 alpha_mix =  0.700 |ddv_scf|^2 =  5.925E-06

      iter #   3 total cpu time :    56.1 secs   av.it.:   9.7
      thresh= 2.434E-04 alpha_mix =  0.700 |ddv_scf|^2 =  5.558E-08

      iter #   4 total cpu time :    56.9 secs   av.it.:  10.0
      thresh= 2.357E-05 alpha_mix =  0.700 |ddv_scf|^2 =  2.455E-10

      iter #   5 total cpu time :    57.8 secs   av.it.:  10.5
      thresh= 1.567E-06 alpha_mix =  0.700 |ddv_scf|^2 =  3.857E-11

      iter #   6 total cpu time :    58.6 secs   av.it.:  10.4
      thresh= 6.210E-07 alpha_mix =  0.700 |ddv_scf|^2 =  2.645E-12

      iter #   7 total cpu time :    59.5 secs   av.it.:  10.5
      thresh= 1.626E-07 alpha_mix =  0.700 |ddv_scf|^2 =  3.153E-14

      iter #   8 total cpu time :    60.4 secs   av.it.:  10.7
      thresh= 1.776E-08 alpha_mix =  0.700 |ddv_scf|^2 =  2.858E-15

     End of self-consistent calculation

     Convergence has been achieved 


     Representation #   4 mode #   4

     Self-consistent Calculation

      iter #   1 total cpu time :    61.0 secs   av.it.:   6.0
      thresh= 1.000E-02 alpha_mix =  0.700 |ddv_scf|^2 =  7.628E-07

      iter #   2 total cpu time :    61.8 secs   av.it.:  10.8
      thresh= 8.734E-05 alpha_mix =  0.700 |ddv_scf|^2 =  1.325E-06

      iter #   3 total cpu time :    62.7 secs   av.it.:   9.8
      thresh= 1.151E-04 alpha_mix =  0.700 |ddv_scf|^2 =  4.369E-08

[...]
        k(   47) = (  -0.6250000  -0.1250000  -0.3750000), wk =   0.0625000
        k(   48) = (  -1.1250000  -1.1250000  -0.3750000), wk =   0.0000000
        k(   49) = (   0.6250000   0.1250000   0.3750000), wk =   0.0625000
        k(   50) = (   0.1250000  -0.8750000   0.3750000), wk =   0.0000000
        k(   51) = (  -0.3750000  -0.1250000   0.6250000), wk =   0.0625000
        k(   52) = (  -0.8750000  -1.1250000   0.6250000), wk =   0.0000000
        k(   53) = (   0.1250000   0.6250000   0.3750000), wk =   0.0625000
        k(   54) = (  -0.3750000  -0.3750000   0.3750000), wk =   0.0000000
        k(   55) = (  -0.1250000   0.6250000  -0.3750000), wk =   0.0625000
        k(   56) = (  -0.6250000  -0.3750000  -0.3750000), wk =   0.0000000
        k(   57) = (   0.1250000  -0.8750000  -0.1250000), wk =   0.0625000
        k(   58) = (  -0.3750000  -1.8750000  -0.1250000), wk =   0.0000000
        k(   59) = (  -0.8750000   0.1250000  -0.1250000), wk =   0.0625000
        k(   60) = (  -1.3750000  -0.8750000  -0.1250000), wk =   0.0000000
        k(   61) = (  -1.1250000   0.3750000  -0.3750000), wk =   0.0625000
        k(   62) = (  -1.6250000  -0.6250000  -0.3750000), wk =   0.0000000
        k(   63) = (  -0.3750000   0.3750000   1.1250000), wk =   0.0625000
        k(   64) = (  -0.8750000  -0.6250000   1.1250000), wk =   0.0000000

     Dense  grid:    87843 G-vectors     FFT dimensions: (  64,  64,  64)

     Smooth grid:    16889 G-vectors     FFT dimensions: (  36,  36,  36)

     Estimated max dynamical RAM per process >       8.07 MB

     Estimated total dynamical RAM >      32.27 MB

     The potential is recalculated from file :
     ./tmp/_ph0/Si.save/charge-density

     Starting wfcs are    8 atomic wfcs

     Band Structure Calculation
     Davidson diagonalization with overlap

     ethr =  1.25E-10,  avg # of iterations = 12.3

     total cpu time spent up to now is        5.6 secs

     End of band structure calculation

          k =-0.1250 0.1250 0.1250 (  2112 PWs)   bands (ev):

    -5.4694   4.6493   5.9401   5.9401

          k =-0.6250-0.8750 0.1250 (  2132 PWs)   bands (ev):

    -2.2050  -0.6501   2.1798   3.2770

          k =-0.3750 0.3750-0.1250 (  2117 PWs)   bands (ev):

    -4.4234   1.6392   3.9308   5.4566

          k =-0.8750-0.6250-0.1250 (  2132 PWs)   bands (ev):

    -2.2050  -0.6501   2.1798   3.2770

          k = 0.3750-0.3750 0.6250 (  2115 PWs)   bands (ev):

    -3.2527  -0.4833   3.9648   4.6706

          k =-0.1250-1.3750 0.6250 (  2125 PWs)   bands (ev):

    -2.7493  -0.3672   2.2511   4.3471

          k = 0.1250-0.1250 0.3750 (  2106 PWs)   bands (ev):

    -4.9322   3.0372   4.9140   4.9971

          k =-0.3750-1.1250 0.3750 (  2125 PWs)   bands (ev):

    -2.7493  -0.3672   2.2511   4.3471

          k =-0.1250 0.6250 0.1250 (  2114 PWs)   bands (ev):

    -3.8823   1.3350   3.5689   4.0262

          k =-0.6250-0.3750 0.1250 (  2117 PWs)   bands (ev):

    -3.4556   0.4309   2.9232   4.3060

          k = 0.6250-0.1250 0.8750 (  2132 PWs)   bands (ev):

    -2.2050  -0.6501   2.1798   3.2770

          k = 0.1250-1.1250 0.8750 (  2127 PWs)   bands (ev):

    -2.3835  -0.5470   2.8023   3.5524

          k = 0.3750 0.1250 0.6250 (  2117 PWs)   bands (ev):

    -3.4556   0.4309   2.9232   4.3060

          k =-0.1250-0.8750 0.6250 (  2132 PWs)   bands (ev):

    -2.2050  -0.6501   2.1798   3.2770

          k =-0.1250-0.8750 0.1250 (  2127 PWs)   bands (ev):

    -2.3835  -0.5470   2.8023   3.5524

          k =-0.6250-1.8750 0.1250 (  2114 PWs)   bands (ev):

    -3.8823   1.3350   3.5689   4.0262

          k =-0.3750 0.3750 0.3750 (  2114 PWs)   bands (ev):

    -3.9792   0.3165   5.1447   5.1447

          k =-0.8750-0.6250 0.3750 (  2117 PWs)   bands (ev):

    -3.4556   0.4309   2.9232   4.3060

          k = 0.3750-0.3750 1.1250 (  2125 PWs)   bands (ev):

    -2.7493  -0.3672   2.2511   4.3471

          k =-0.1250-1.3750 1.1250 (  2132 PWs)   bands (ev):

    -2.2050  -0.6501   2.1798   3.2770

          k = 0.1250-0.3750 0.3750 (  2117 PWs)   bands (ev):

    -4.4234   1.6392   3.9308   5.4566

          k =-0.3750-1.3750 0.3750 (  2115 PWs)   bands (ev):

    -3.2527  -0.4833   3.9648   4.6706

          k = 0.3750-0.3750-0.1250 (  2117 PWs)   bands (ev):

    -4.4234   1.6392   3.9308   5.4566

          k =-0.1250-1.3750-0.1250 (  2114 PWs)   bands (ev):

    -3.8823   1.3350   3.5689   4.0262

          k =-0.6250 0.3750-0.3750 (  2115 PWs)   bands (ev):

    -3.2527  -0.4833   3.9648   4.6706

          k =-1.1250-0.6250-0.3750 (  2117 PWs)   bands (ev):

    -3.4556   0.4309   2.9232   4.3060

          k =-0.3750 0.3750 0.6250 (  2115 PWs)   bands (ev):

    -3.2527  -0.4833   3.9648   4.6706

          k =-0.8750-0.6250 0.6250 (  2117 PWs)   bands (ev):

    -4.4234   1.6392   3.9308   5.4566

          k =-0.3750 0.1250-0.1250 (  2106 PWs)   bands (ev):

    -4.9322   3.0372   4.9140   4.9971

          k =-0.8750-0.8750-0.1250 (  2127 PWs)   bands (ev):

    -2.3835  -0.5470   2.8023   3.5524

          k =-0.1250 0.1250 0.3750 (  2106 PWs)   bands (ev):

    -4.9322   3.0372   4.9140   4.9971

          k =-0.6250-0.8750 0.3750 (  2117 PWs)   bands (ev):

    -3.4556   0.4309   2.9232   4.3060

          k = 0.1250 0.6250-0.1250 (  2114 PWs)   bands (ev):

    -3.8823   1.3350   3.5689   4.0262

          k =-0.3750-0.3750-0.1250 (  2117 PWs)   bands (ev):

    -4.4234   1.6392   3.9308   5.4566

          k = 0.6250 0.1250-0.1250 (  2114 PWs)   bands (ev):

    -3.8823   1.3350   3.5689   4.0262

          k = 0.1250-0.8750-0.1250 (  2127 PWs)   bands (ev):

    -2.3835  -0.5470   2.8023   3.5524

          k =-0.8750 0.1250-0.6250 (  2132 PWs)   bands (ev):

    -2.2050  -0.6501   2.1798   3.2770

          k =-1.3750-0.8750-0.6250 (  2117 PWs)   bands (ev):

    -4.4234   1.6392   3.9308   5.4566

          k = 0.8750-0.1250 0.6250 (  2132 PWs)   bands (ev):

    -2.2050  -0.6501   2.1798   3.2770

          k = 0.3750-1.1250 0.6250 (  2117 PWs)   bands (ev):

    -3.4556   0.4309   2.9232   4.3060

          k =-0.6250 0.1250 0.8750 (  2132 PWs)   bands (ev):

    -2.2050  -0.6501   2.1798   3.2770

          k =-1.1250-0.8750 0.8750 (  2112 PWs)   bands (ev):

    -5.4694   4.6493   5.9401   5.9401

          k =-0.1250 0.8750 0.6250 (  2132 PWs)   bands (ev):

    -2.2050  -0.6501   2.1798   3.2770

          k =-0.6250-0.1250 0.6250 (  2125 PWs)   bands (ev):

    -2.7493  -0.3672   2.2511   4.3471

          k = 0.1250 0.8750-0.6250 (  2132 PWs)   bands (ev):

    -2.2050  -0.6501   2.1798   3.2770

          k =-0.3750-0.1250-0.6250 (  2117 PWs)   bands (ev):

    -3.4556   0.4309   2.9232   4.3060

          k =-0.6250-0.1250-0.3750 (  2117 PWs)   bands (ev):

    -3.4556   0.4309   2.9232   4.3060

          k =-1.1250-1.1250-0.3750 (  2114 PWs)   bands (ev):

    -3.8823   1.3350   3.5689   4.0262

          k = 0.6250 0.1250 0.3750 (  2117 PWs)   bands (ev):

    -3.4556   0.4309   2.9232   4.3060

          k = 0.1250-0.8750 0.3750 (  2132 PWs)   bands (ev):

    -2.2050  -0.6501   2.1798   3.2770

          k =-0.3750-0.1250 0.6250 (  2117 PWs)   bands (ev):

    -3.4556   0.4309   2.9232   4.3060

          k =-0.8750-1.1250 0.6250 (  2106 PWs)   bands (ev):

    -4.9322   3.0372   4.9140   4.9971

          k = 0.1250 0.6250 0.3750 (  2117 PWs)   bands (ev):

    -3.4556   0.4309   2.9232   4.3060

          k =-0.3750-0.3750 0.3750 (  2114 PWs)   bands (ev):

    -3.9792   0.3165   5.1447   5.1447

          k =-0.1250 0.6250-0.3750 (  2117 PWs)   bands (ev):

    -3.4556   0.4309   2.9232   4.3060

          k =-0.6250-0.3750-0.3750 (  2115 PWs)   bands (ev):

    -3.2527  -0.4833   3.9648   4.6706

          k = 0.1250-0.8750-0.1250 (  2127 PWs)   bands (ev):

    -2.3835  -0.5470   2.8023   3.5524

          k =-0.3750-1.8750-0.1250 (  2106 PWs)   bands (ev):

    -4.9322   3.0372   4.9140   4.9971

          k =-0.8750 0.1250-0.1250 (  2127 PWs)   bands (ev):

    -2.3835  -0.5470   2.8023   3.5524

          k =-1.3750-0.8750-0.1250 (  2132 PWs)   bands (ev):

    -2.2050  -0.6501   2.1798   3.2770

          k =-1.1250 0.3750-0.3750 (  2125 PWs)   bands (ev):

    -2.7493  -0.3672   2.2511   4.3471

          k =-1.6250-0.6250-0.3750 (  2115 PWs)   bands (ev):

    -3.2527  -0.4833   3.9648   4.6706

          k =-0.3750 0.3750 1.1250 (  2125 PWs)   bands (ev):

    -2.7493  -0.3672   2.2511   4.3471

          k =-0.8750-0.6250 1.1250 (  2106 PWs)   bands (ev):

    -4.9322   3.0372   4.9140   4.9971

     highest occupied level (ev):     5.9401

     Writing config to output data dir ./tmp/_ph0/Si.save/

     Phonons on a uniform q-grid                                                

     bravais-lattice index     =            2
     lattice parameter (alat)  =      10.2625  a.u.
     unit-cell volume          =     270.2088 (a.u.)^3
     number of atoms/cell      =            2
     number of atomic types    =            1
     kinetic-energy cut-off    =      60.0000  Ry
     charge density cut-off    =     720.0000  Ry
     convergence threshold     =      1.0E-14
     beta                      =       0.7000
     number of iterations used =            4
     Exchange-correlation= PBE
                           (   1   4   3   4   0   0   0)


     celldm(1)=   10.26250  celldm(2)=    0.00000  celldm(3)=    0.00000
     celldm(4)=    0.00000  celldm(5)=    0.00000  celldm(6)=    0.00000

     crystal axes: (cart. coord. in units of alat)
               a(1) = ( -0.5000  0.0000  0.5000 )  
               a(2) = (  0.0000  0.5000  0.5000 )  
               a(3) = ( -0.5000  0.5000  0.0000 )  

     reciprocal axes: (cart. coord. in units 2 pi/alat)
               b(1) = ( -1.0000 -1.0000  1.0000 )  
               b(2) = (  1.0000  1.0000  1.0000 )  
               b(3) = ( -1.0000  1.0000 -1.0000 )  


     Atoms inside the unit cell: 

     Cartesian axes

     site n.  atom      mass           positions (alat units)
        1     Si  28.0855   tau(    1) = (    0.00000    0.00000    0.00000  )
        2     Si  28.0855   tau(    2) = (    0.25000    0.25000    0.25000  )

     Computing dynamical matrix for 
                    q = (  -0.5000000  -1.0000000   0.0000000 )

      8 Sym.Ops. (no q -> -q+G )


     G cutoff = 1920.7865  (  21962 G-vectors)     FFT grid: ( 64, 64, 64)
     G cutoff =  640.2622  (   4224 G-vectors)  smooth grid: ( 36, 36, 36)
     number of k points=    64

     PseudoPot. # 1 for Si read from file:
     ../pseudo/Si.pbe-rrkj.UPF
     MD5 check sum: c5f788e1e261afac4ba18be32da5cf3b
     Pseudo is Norm-conserving, Zval =  4.0
     Generated by new atomic code, or converted to UPF format
     Using radial grid of  883 points,  3 beta functions with: 
                l(1) =   0
                l(2) =   0
                l(3) =   1


     Atomic displacements:
     There are    3 irreducible representations

     Representation     1      2 modes -  To be done

     Representation     2      2 modes -  To be done

     Representation     3      2 modes -  To be done



     Alpha used in Ewald sum =   2.8000
     PHONON       :   1m34.65s CPU   1m37.74s WALL



     Representation #   1 modes #   1   2

     Self-consistent Calculation

      iter #   1 total cpu time :    98.1 secs   av.it.:   6.1
      thresh= 1.000E-02 alpha_mix =  0.700 |ddv_scf|^2 =  3.092E-07

      iter #   2 total cpu time :    98.6 secs   av.it.:  11.5
      thresh= 5.561E-05 alpha_mix =  0.700 |ddv_scf|^2 =  3.909E-07

      iter #   3 total cpu time :    99.1 secs   av.it.:  11.0
      thresh= 6.252E-05 alpha_mix =  0.700 |ddv_scf|^2 =  8.632E-11

      iter #   4 total cpu time :    99.6 secs   av.it.:  11.0
      thresh= 9.291E-07 alpha_mix =  0.700 |ddv_scf|^2 =  5.840E-12

      iter #   5 total cpu time :   100.0 secs   av.it.:  10.7
      thresh= 2.417E-07 alpha_mix =  0.700 |ddv_scf|^2 =  5.008E-15

     End of self-consistent calculation

     Convergence has been achieved 


     Representation #   2 modes #   3   4

     Self-consistent Calculation

      iter #   1 total cpu time :   100.4 secs   av.it.:   6.0
      thresh= 1.000E-02 alpha_mix =  0.700 |ddv_scf|^2 =  1.438E-07

      iter #   2 total cpu time :   100.8 secs   av.it.:  11.7
      thresh= 3.792E-05 alpha_mix =  0.700 |ddv_scf|^2 =  8.951E-08

      iter #   3 total cpu time :   101.3 secs   av.it.:  11.1
      thresh= 2.992E-05 alpha_mix =  0.700 |ddv_scf|^2 =  4.212E-11

      iter #   4 total cpu time :   101.8 secs   av.it.:  10.7
      thresh= 6.490E-07 alpha_mix =  0.700 |ddv_scf|^2 =  1.257E-12

      iter #   5 total cpu time :   102.2 secs   av.it.:  10.7
      thresh= 1.121E-07 alpha_mix =  0.700 |ddv_scf|^2 =  3.415E-15

     End of self-consistent calculation

     Convergence has been achieved 


     Representation #   3 modes #   5   6

     Self-consistent Calculation

      iter #   1 total cpu time :   102.6 secs   av.it.:   6.2
      thresh= 1.000E-02 alpha_mix =  0.700 |ddv_scf|^2 =  1.742E-07

      iter #   2 total cpu time :   103.0 secs   av.it.:  11.7
      thresh= 4.173E-05 alpha_mix =  0.700 |ddv_scf|^2 =  1.112E-07

      iter #   3 total cpu time :   103.5 secs   av.it.:  11.2
      thresh= 3.335E-05 alpha_mix =  0.700 |ddv_scf|^2 =  4.139E-11

      iter #   4 total cpu time :   104.0 secs   av.it.:  10.5
      thresh= 6.433E-07 alpha_mix =  0.700 |ddv_scf|^2 =  3.524E-12

      iter #   5 total cpu time :   104.4 secs   av.it.:  11.0
      thresh= 1.877E-07 alpha_mix =  0.700 |ddv_scf|^2 =  2.831E-15

     End of self-consistent calculation

     Convergence has been achieved 

     Number of q in the star =    6
     List of q in the star:
          1  -0.500000000  -1.000000000   0.000000000
          2   0.000000000   1.000000000   0.500000000
          3   0.000000000  -1.000000000  -0.500000000
          4   0.500000000   1.000000000   0.000000000
          5  -1.000000000  -0.500000000   0.000000000
          6   0.000000000  -0.500000000  -1.000000000

     Diagonalizing the dynamical matrix

     q = (   -0.500000000  -1.000000000   0.000000000 ) 

 **************************************************************************
     freq (    1) =       5.999619 [THz] =     200.125759 [cm-1]
     freq (    2) =       5.999619 [THz] =     200.125759 [cm-1]
     freq (    3) =      10.539909 [THz] =     351.573525 [cm-1]
     freq (    4) =      10.539909 [THz] =     351.573525 [cm-1]
     freq (    5) =      13.922736 [THz] =     464.412482 [cm-1]
     freq (    6) =      13.922736 [THz] =     464.412482 [cm-1]
 **************************************************************************

     init_run     :      0.23s CPU      0.24s WALL (       7 calls)
     electrons    :      5.25s CPU      5.34s WALL (       7 calls)

     Called by init_run:
     wfcinit      :      0.00s CPU      0.00s WALL (       7 calls)
     potinit      :      0.08s CPU      0.09s WALL (       7 calls)
     hinit0       :      0.04s CPU      0.04s WALL (       7 calls)

     Called by electrons:
     c_bands      :      5.25s CPU      5.34s WALL (       7 calls)
     v_of_rho     :      0.08s CPU      0.09s WALL (       8 calls)

     Called by c_bands:
     init_us_2    :      0.46s CPU      0.49s WALL (   18610 calls)
     init_us_2:cp :      0.45s CPU      0.48s WALL (   18610 calls)
     cegterg      :      4.50s CPU      4.56s WALL (     796 calls)

     Called by *egterg:
     cdiaghg      :      0.20s CPU      0.20s WALL (   10658 calls)
     h_psi        :     68.67s CPU     70.50s WALL (  184705 calls)
     g_psi        :      0.04s CPU      0.04s WALL (    9862 calls)

     Called by h_psi:
     h_psi:calbec :      1.68s CPU      1.73s WALL (  184705 calls)
     vloc_psi     :     65.74s CPU     67.50s WALL (  184705 calls)
     add_vuspsi   :      0.83s CPU      0.85s WALL (  184705 calls)

     General routines
     calbec       :      3.06s CPU      3.16s WALL (  371858 calls)
     fft          :      1.56s CPU      1.60s WALL (    3793 calls)
     ffts         :      0.32s CPU      0.34s WALL (    3279 calls)
     fftw         :     59.60s CPU     61.27s WALL ( 1564690 calls)
     interpolate  :      0.38s CPU      0.41s WALL (     579 calls)
     davcio       :      0.60s CPU      0.88s WALL (   79956 calls)

     Parallel routines

     PHONON       :   1m41.03s CPU   1m44.43s WALL

     INITIALIZATION: 
     phq_setup    :      0.38s CPU      0.42s WALL (       8 calls)
     phq_init     :      0.31s CPU      0.32s WALL (       8 calls)

     phq_init     :      0.31s CPU      0.32s WALL (       8 calls)
     init_vloc    :      0.01s CPU      0.01s WALL (       8 calls)
     init_us_1    :      0.02s CPU      0.02s WALL (       8 calls)
     init_us_2    :      0.46s CPU      0.49s WALL (   18610 calls)

     DYNAMICAL MATRIX:
     dynmat0      :      0.09s CPU      0.10s WALL (       8 calls)
     dynmat_us    :      0.07s CPU      0.08s WALL (       8 calls)
     d2ionq       :      0.02s CPU      0.02s WALL (       8 calls)
     phqscf       :     92.04s CPU     95.16s WALL (       8 calls)
     dynmatrix    :      0.00s CPU      0.01s WALL (       8 calls)

     phqscf       :     92.04s CPU     95.16s WALL (       8 calls)
     solve_linter :     91.86s CPU     94.93s WALL (      32 calls)
     sth_kernel   :     80.46s CPU     82.78s WALL (     196 calls)
     h_prec       :      0.13s CPU      0.14s WALL (   12984 calls)
     apply_dpot_b :      4.33s CPU      4.52s WALL (   12816 calls)
     ortho        :      0.15s CPU      0.16s WALL (   15324 calls)
     cgsolve      :     69.89s CPU     71.82s WALL (   15324 calls)
     incdrhoscf   :      5.37s CPU      5.53s WALL (   15294 calls)
                                        0.00s GPU  (   15294 calls)
     dv_of_drho   :      2.08s CPU      2.11s WALL (     282 calls)
     mix_pot      :      0.47s CPU      0.82s WALL (     196 calls)
     drhodv       :      0.17s CPU      0.19s WALL (      32 calls)
     psymdvscf    :      8.16s CPU      8.24s WALL (     191 calls)

     dvqpsi_us    :      1.09s CPU      1.14s WALL (    2508 calls)
                                        0.00s GPU  (    2508 calls)
     dvqpsi_us_on :      0.06s CPU      0.06s WALL (    2508 calls)

     add_vuspsi   :      0.83s CPU      0.85s WALL (  184705 calls)


      General routines
     calbec       :      3.06s CPU      3.16s WALL (  371858 calls)
     fft          :      1.56s CPU      1.60s WALL (    3793 calls)
     ffts         :      0.32s CPU      0.34s WALL (    3279 calls)
     fftw         :     59.60s CPU     61.27s WALL ( 1564690 calls)
     davcio       :      0.60s CPU      0.88s WALL (   79956 calls)
     write_rec    :      0.06s CPU      0.35s WALL (     228 calls)

      Additional routines
     ch_psi       :     67.92s CPU     69.78s WALL (  173251 calls)
     last         :      3.24s CPU      3.33s WALL (  173251 calls)
     Hesh         :      0.16s CPU      0.17s WALL (  173251 calls)
     ch_psi_all_k :      2.96s CPU      3.05s WALL (  173251 calls)
                                        0.00s GPU  (  173251 calls)
     ch_psi_calbe :      1.42s CPU      1.46s WALL (  173251 calls)
                                        0.00s GPU  (  173251 calls)
     h_psi_bgrp   :     68.74s CPU     70.58s WALL (  184705 calls)
     h_psi        :     68.67s CPU     70.50s WALL (  184705 calls)
     h_psi:pot    :     68.41s CPU     70.23s WALL (  184705 calls)
     h_psi:calbec :      1.68s CPU      1.73s WALL (  184705 calls)
     s_psi_bgrp   :      0.33s CPU      0.34s WALL (  361826 calls)


     PHONON       :   1m41.03s CPU   1m44.43s WALL


   This run was terminated on:  16:35:17  21May2025            

=------------------------------------------------------------------------------=
   JOB DONE.
=------------------------------------------------------------------------------=
