
     Program PHONON v.7.2 starts on 21May2025 at 17:17:59 

     This program is part of the open-source Quantum ESPRESSO suite
     for quantum simulation of materials; please cite
         "P. Giannozzi et al., J. Phys.:Condens. Matter 21 395502 (2009);
         "P. Giannozzi et al., J. Phys.:Condens. Matter 29 465901 (2017);
         "P. Giannozzi et al., J. Chem. Phys. 152 154105 (2020);
          URL http://www.quantum-espresso.org", 
     in publications or presentations arising from this work. More details at
     http://www.quantum-espresso.org/quote

     Parallel version (MPI & OpenMP), running on       4 processor cores
     Number of MPI processes:                 4
     Threads/MPI process:                     1

     MPI processes distributed on     1 nodes
     50686 MiB available memory on the printing compute node when the environment starts

     Reading input from AlAs.ph.in

     Reading xml data from directory:

     ./tmp/AlAs.save/

     R & G space division:  proc/nbgrp/npool/nimage =       4
     Subspace diagonalization in iterative solution of the eigenvalue problem:
     a serial algorithm will be used

     file Al.pbe-n-kjpaw_psl.1.0.0.UPF: wavefunction(s)  3S 3P renormalized

     IMPORTANT: XC functional enforced from input :
     Exchange-correlation= PBE
                           (   1   4   3   4   0   0   0)
     Any further DFT definition will be discarded
     Please, verify this is what you really want


     Parallelization info
     --------------------
     sticks:   dense  smooth     PW     G-vecs:    dense   smooth      PW
     Min         267     129     40                 5748     1997     340
     Max         268     130     41                 5750     1999     342
     Sum        1069     517    163                22995     7991    1363

     Using Slab Decomposition

     Reading collected, re-writing distributed wavefunctions in ./tmp/

     Calculation of q =    0.0000000   0.0000000   0.0000000

     Phonons at Gamma                                                           

     bravais-lattice index     =            2
     lattice parameter (alat)  =      10.5000  a.u.
     unit-cell volume          =     289.4062 (a.u.)^3
     number of atoms/cell      =            2
     number of atomic types    =            2
     kinetic-energy cut-off    =      35.0000  Ry
     charge density cut-off    =     280.0000  Ry
     convergence threshold     =      1.0E-14
     beta                      =       0.7000
     number of iterations used =            4
     Exchange-correlation= PBE
                           (   1   4   3   4   0   0   0)


     celldm(1)=   10.50000  celldm(2)=    0.00000  celldm(3)=    0.00000
     celldm(4)=    0.00000  celldm(5)=    0.00000  celldm(6)=    0.00000

     crystal axes: (cart. coord. in units of alat)
               a(1) = ( -0.5000  0.0000  0.5000 )  
               a(2) = (  0.0000  0.5000  0.5000 )  
               a(3) = ( -0.5000  0.5000  0.0000 )  

     reciprocal axes: (cart. coord. in units 2 pi/alat)
               b(1) = ( -1.0000 -1.0000  1.0000 )  
               b(2) = (  1.0000  1.0000  1.0000 )  
               b(3) = ( -1.0000  1.0000 -1.0000 )  


     Atoms inside the unit cell: 

     Cartesian axes

     site n.  atom      mass           positions (alat units)
        1     Al  26.9800   tau(    1) = (    0.00000    0.00000    0.00000  )
        2     As  74.9200   tau(    2) = (    0.25000    0.25000    0.25000  )

     Computing dynamical matrix for 
                    q = (   0.0000000   0.0000000   0.0000000 )

     25 Sym.Ops. (with q -> -q+G )


     G cutoff =  781.9462  (   5749 G-vectors)     FFT grid: ( 40, 40, 40)
     G cutoff =  390.9731  (   1997 G-vectors)  smooth grid: ( 27, 27, 27)
     number of k points=     3
                       cart. coord. in units 2pi/alat
        k(    1) = (   0.0000000   0.0000000   0.0000000), wk =   0.2500000
        k(    2) = (   0.5000000  -0.5000000   0.5000000), wk =   1.0000000
        k(    3) = (   0.0000000  -1.0000000   0.0000000), wk =   0.7500000

     PseudoPot. # 1 for Al read from file:
     ../pseudo/Al.pbe-n-kjpaw_psl.1.0.0.UPF
     MD5 check sum: cfc449ca30b5f3223ec38ddd88ac046d
     Pseudo is Projector augmented-wave + core cor, Zval =  3.0
     Generated using "atomic" code by A. Dal Corso  v.5.1
     Shape of augmentation charge: PSQ
     Using radial grid of 1135 points,  6 beta functions with: 
                l(1) =   0
                l(2) =   0
                l(3) =   1
                l(4) =   1
                l(5) =   2
                l(6) =   2
     Q(r) pseudized with 0 coefficients 


     PseudoPot. # 2 for As read from file:
     ../pseudo/As.pbe-n-rrkjus_psl.0.2.UPF
     MD5 check sum: 767315de957beeeb34f87d97bf945c8f
     Pseudo is Ultrasoft + core correction, Zval =  5.0
     Generated using "atomic" code by A. Dal Corso  v.5.0.99 svn rev. 10869
     Using radial grid of 1209 points,  4 beta functions with: 
                l(1) =   0
                l(2) =   0
                l(3) =   1
                l(4) =   1
     Q(r) pseudized with 0 coefficients 


     Mode symmetry, T_d (-43m)  point group:


     Electric field:
     Dielectric constant
     Born effective charges as d Force / d E


     Atomic displacements:
     There are    2 irreducible representations

     Representation     1      3 modes -  To be done

     Representation     2      3 modes -  To be done



     Alpha used in Ewald sum =   2.8000
     PHONON       :      0.57s CPU      0.59s WALL


     Electric Fields Calculation

      iter #   1 total cpu time :     1.1 secs   av.it.:   6.9
      thresh= 1.000E-02 alpha_mix =  0.700 |ddv_scf|^2 =  3.512E-07

      iter #   2 total cpu time :     1.5 secs   av.it.:  10.0
      thresh= 5.926E-05 alpha_mix =  0.700 |ddv_scf|^2 =  4.611E-08

      iter #   3 total cpu time :     2.0 secs   av.it.:  10.4
      thresh= 2.147E-05 alpha_mix =  0.700 |ddv_scf|^2 =  4.359E-09

      iter #   4 total cpu time :     2.4 secs   av.it.:  10.6
      thresh= 6.602E-06 alpha_mix =  0.700 |ddv_scf|^2 =  5.438E-11

      iter #   5 total cpu time :     2.9 secs   av.it.:  10.3
      thresh= 7.375E-07 alpha_mix =  0.700 |ddv_scf|^2 =  8.823E-13

      iter #   6 total cpu time :     3.4 secs   av.it.:  10.7
      thresh= 9.393E-08 alpha_mix =  0.700 |ddv_scf|^2 =  1.886E-14

      iter #   7 total cpu time :     3.8 secs   av.it.:  10.2
      thresh= 1.373E-08 alpha_mix =  0.700 |ddv_scf|^2 =  5.142E-17

     End of electric fields calculation

          Dielectric constant in cartesian axis 

          (      37.986037419      -0.000000000       0.000000000 )
          (      -0.000000000      37.986037419       0.000000000 )
          (      -0.000000000       0.000000000      37.986037419 )

          Effective charges (d Force / dE) in cartesian axis without acoustic sum rule applied (asr)

           atom      1   Al Mean Z*:        0.27773
      Ex  (        0.27773        0.00000        0.00000 )
      Ey  (        0.00000        0.27773       -0.00000 )
      Ez  (        0.00000       -0.00000        0.27773 )
           atom      2   As Mean Z*:       -8.59116
      Ex  (       -8.59116       -0.00000        0.00000 )
      Ey  (       -0.00000       -8.59116        0.00000 )
      Ez  (        0.00000       -0.00000       -8.59116 )

          Effective charges Sum: Mean:       -8.31343
             -8.31343       -0.00000        0.00000
             -0.00000       -8.31343       -0.00000
              0.00000       -0.00000       -8.31343

          Effective charges (d Force / dE) in cartesian axis with asr applied: 
           atom      1   Al Mean Z*:        4.43445
      E*x (        4.43445        0.00000       -0.00000 )
      E*y (        0.00000        4.43445       -0.00000 )
      E*z (       -0.00000       -0.00000        4.43445 )
           atom      2   As Mean Z*:       -4.43445
      E*x (       -4.43445       -0.00000        0.00000 )
      E*y (       -0.00000       -4.43445        0.00000 )
      E*z (        0.00000        0.00000       -4.43445 )


     Representation #   1 modes #   1   2   3

     Self-consistent Calculation

      iter #   1 total cpu time :     4.3 secs   av.it.:   5.9
      thresh= 1.000E-02 alpha_mix =  0.700 |ddv_scf|^2 =  3.724E-08

      iter #   2 total cpu time :     4.8 secs   av.it.:  10.4
      thresh= 1.930E-05 alpha_mix =  0.700 |ddv_scf|^2 =  2.147E-09

      iter #   3 total cpu time :     5.3 secs   av.it.:  10.6
      thresh= 4.634E-06 alpha_mix =  0.700 |ddv_scf|^2 =  1.616E-10

      iter #   4 total cpu time :     5.8 secs   av.it.:  11.0
      thresh= 1.271E-06 alpha_mix =  0.700 |ddv_scf|^2 =  1.613E-12

      iter #   5 total cpu time :     6.3 secs   av.it.:  10.7
      thresh= 1.270E-07 alpha_mix =  0.700 |ddv_scf|^2 =  6.183E-14

      iter #   6 total cpu time :     6.8 secs   av.it.:  10.8
      thresh= 2.487E-08 alpha_mix =  0.700 |ddv_scf|^2 =  1.183E-15

     End of self-consistent calculation

     Convergence has been achieved 


     Representation #   2 modes #   4   5   6

     Self-consistent Calculation

      iter #   1 total cpu time :     7.2 secs   av.it.:   5.2
      thresh= 1.000E-02 alpha_mix =  0.700 |ddv_scf|^2 =  4.169E-09

      iter #   2 total cpu time :     7.7 secs   av.it.:  10.6
      thresh= 6.457E-06 alpha_mix =  0.700 |ddv_scf|^2 =  3.236E-10

      iter #   3 total cpu time :     8.2 secs   av.it.:  10.9
      thresh= 1.799E-06 alpha_mix =  0.700 |ddv_scf|^2 =  2.456E-11

      iter #   4 total cpu time :     8.6 secs   av.it.:  10.6
      thresh= 4.955E-07 alpha_mix =  0.700 |ddv_scf|^2 =  1.671E-12

      iter #   5 total cpu time :     9.1 secs   av.it.:  10.8
      thresh= 1.293E-07 alpha_mix =  0.700 |ddv_scf|^2 =  2.796E-14

      iter #   6 total cpu time :     9.6 secs   av.it.:  10.3
      thresh= 1.672E-08 alpha_mix =  0.700 |ddv_scf|^2 =  6.489E-17

     End of self-consistent calculation

     Convergence has been achieved 

     Number of q in the star =    1
     List of q in the star:
          1   0.000000000   0.000000000   0.000000000

          Dielectric constant in cartesian axis 

          (      37.986037419      -0.000000000       0.000000000 )
          (      -0.000000000      37.986037419       0.000000000 )
          (      -0.000000000       0.000000000      37.986037419 )

          Effective charges (d Force / dE) in cartesian axis without acoustic sum rule applied (asr)

           atom      1   Al Mean Z*:        0.27773
      Ex  (        0.27773        0.00000        0.00000 )
      Ey  (        0.00000        0.27773       -0.00000 )
      Ez  (        0.00000       -0.00000        0.27773 )
           atom      2   As Mean Z*:       -8.59116
      Ex  (       -8.59116       -0.00000        0.00000 )
      Ey  (       -0.00000       -8.59116        0.00000 )
      Ez  (        0.00000       -0.00000       -8.59116 )

          Effective charges Sum: Mean:       -8.31343
             -8.31343       -0.00000        0.00000
             -0.00000       -8.31343       -0.00000
              0.00000       -0.00000       -8.31343

          Effective charges (d Force / dE) in cartesian axis with asr applied: 
           atom      1   Al Mean Z*:        4.43445
      E*x (        4.43445        0.00000       -0.00000 )
      E*y (        0.00000        4.43445       -0.00000 )
      E*z (       -0.00000       -0.00000        4.43445 )
           atom      2   As Mean Z*:       -4.43445
      E*x (       -4.43445       -0.00000        0.00000 )
      E*y (       -0.00000       -4.43445        0.00000 )
      E*z (        0.00000        0.00000       -4.43445 )

     Diagonalizing the dynamical matrix

     q = (    0.000000000   0.000000000   0.000000000 ) 

 **************************************************************************
     freq (    1) =      -0.062455 [THz] =      -2.083289 [cm-1]
     freq (    2) =      -0.062455 [THz] =      -2.083289 [cm-1]
     freq (    3) =      -0.062455 [THz] =      -2.083289 [cm-1]
     freq (    4) =      11.807415 [THz] =     393.852972 [cm-1]
     freq (    5) =      11.807415 [THz] =     393.852972 [cm-1]
     freq (    6) =      11.807415 [THz] =     393.852972 [cm-1]
 **************************************************************************

     Mode symmetry, T_d (-43m)  point group:

     freq (   1-   3) =         -2.1  [cm-1]   --> T_2  G_15 P_4   I+R
     freq (   4-   6) =        393.9  [cm-1]   --> T_2  G_15 P_4   I+R

     PHONON       :      9.46s CPU      9.57s WALL

     INITIALIZATION: 
     phq_setup    :      0.05s CPU      0.05s WALL (       1 calls)
     phq_init     :      0.19s CPU      0.19s WALL (       1 calls)

     phq_init     :      0.19s CPU      0.19s WALL (       1 calls)
     set_drhoc    :      0.11s CPU      0.11s WALL (       3 calls)
     init_vloc    :      0.00s CPU      0.00s WALL (       1 calls)
     init_us_1    :      0.04s CPU      0.04s WALL (       1 calls)
     init_us_2    :      0.00s CPU      0.00s WALL (      96 calls)
     newd         :      0.01s CPU      0.01s WALL (       1 calls)
     dvanqq       :      0.03s CPU      0.03s WALL (       1 calls)
     drho         :      0.03s CPU      0.03s WALL (       1 calls)
     drhous       :      0.00s CPU      0.00s WALL (       1 calls)
     nldyntot     :      0.00s CPU      0.00s WALL (       1 calls)
     cmpt_qdipol  :      0.00s CPU      0.00s WALL (       1 calls)

     DIELECTRIC CONSTANT AND EFFECTIVE CHARGES:
     solve_e      :      3.19s CPU      3.22s WALL (       1 calls)
     dielec       :      0.00s CPU      0.00s WALL (       1 calls)
     zstar_eu     :      0.07s CPU      0.08s WALL (       1 calls)

     DYNAMICAL MATRIX:
     dynmat0      :      0.08s CPU      0.08s WALL (       1 calls)
     dynmat_us    :      0.00s CPU      0.00s WALL (       1 calls)
     addusdynmat  :      0.00s CPU      0.00s WALL (       1 calls)
     d2ionq       :      0.00s CPU      0.00s WALL (       1 calls)
     dynmatcc     :      0.07s CPU      0.07s WALL (       1 calls)
     phqscf       :      5.61s CPU      5.69s WALL (       1 calls)
     dynmatrix    :      0.00s CPU      0.00s WALL (       1 calls)

     phqscf       :      5.61s CPU      5.69s WALL (       1 calls)
     solve_linter :      5.61s CPU      5.69s WALL (       2 calls)
     sth_kernel   :      0.57s CPU      0.64s WALL (      19 calls)
     h_prec       :      0.00s CPU      0.00s WALL (      66 calls)
     apply_dpot_b :      0.03s CPU      0.03s WALL (     144 calls)
     ortho        :      0.00s CPU      0.00s WALL (     180 calls)
     cgsolve      :      0.55s CPU      0.57s WALL (     180 calls)
     incdrhoscf   :      0.04s CPU      0.04s WALL (     180 calls)
                                        0.00s GPU  (     180 calls)
     addusddens   :      0.15s CPU      0.15s WALL (      14 calls)
     dv_of_drho   :      0.07s CPU      0.07s WALL (      60 calls)
     mix_pot      :      0.01s CPU      0.03s WALL (      19 calls)
     drhodv       :      0.00s CPU      0.00s WALL (       2 calls)
     psymdvscf    :      0.42s CPU      0.42s WALL (      12 calls)
     newdq        :      0.51s CPU      0.51s WALL (      19 calls)
     adddvscf     :      0.00s CPU      0.00s WALL (     144 calls)
     drhodvus     :      0.00s CPU      0.00s WALL (       2 calls)

     dvqpsi_us    :      0.01s CPU      0.01s WALL (      36 calls)
                                        0.00s GPU  (      36 calls)
     dvqpsi_us_on :      0.00s CPU      0.00s WALL (      36 calls)

     add_vuspsi   :      0.01s CPU      0.01s WALL (    2150 calls)
     addusdbec    :      0.00s CPU      0.00s WALL (     198 calls)

     drhodvus     :      0.00s CPU      0.00s WALL (       2 calls)

      General routines
     calbec       :      0.05s CPU      0.05s WALL (    5230 calls)
     fft          :      0.28s CPU      0.28s WALL (    1220 calls)
     ffts         :      0.05s CPU      0.05s WALL (     178 calls)
     fftw         :      0.43s CPU      0.45s WALL (   18270 calls)
     davcio       :      0.01s CPU      0.06s WALL (    1029 calls)
     write_rec    :      0.01s CPU      0.01s WALL (      21 calls)

      Additional routines
     ch_psi       :      0.53s CPU      0.55s WALL (    2150 calls)
     last         :      0.05s CPU      0.05s WALL (    2150 calls)
     Hesh         :      0.00s CPU      0.00s WALL (    2150 calls)
     ch_psi_all_k :      0.05s CPU      0.05s WALL (    2150 calls)
                                        0.00s GPU  (    2150 calls)
     ch_psi_calbe :      0.02s CPU      0.02s WALL (    2150 calls)
                                        0.00s GPU  (    2150 calls)
     h_psi_bgrp   :      0.46s CPU      0.48s WALL (    2150 calls)
     h_psi        :      0.46s CPU      0.48s WALL (    2150 calls)
     h_psi:pot    :      0.46s CPU      0.48s WALL (    2150 calls)
     h_psi:calbec :      0.02s CPU      0.02s WALL (    2150 calls)
     s_psi_bgrp   :      0.03s CPU      0.03s WALL (    4489 calls)
     s_psi        :      0.03s CPU      0.03s WALL (    4489 calls)


     PHONON       :      9.46s CPU      9.57s WALL


   This run was terminated on:  17:18: 8  21May2025            

=------------------------------------------------------------------------------=
   JOB DONE.
=------------------------------------------------------------------------------=
