
     Program DYNMAT v.7.2 starts on 21May2025 at 17:30: 8 

     This program is part of the open-source Quantum ESPRESSO suite
     for quantum simulation of materials; please cite
         "P. Giannozzi et al., J. Phys.:Condens. Matter 21 395502 (2009);
         "P. Giannozzi et al., J. Phys.:Condens. Matter 29 465901 (2017);
         "P. Giannozzi et al., J. Chem. Phys. 152 154105 (2020);
          URL http://www.quantum-espresso.org", 
     in publications or presentations arising from this work. More details at
     http://www.quantum-espresso.org/quote

     Parallel version (MPI & OpenMP), running on       1 processor cores
     Number of MPI processes:                 1
     Threads/MPI process:                     1

     MPI processes distributed on     1 nodes
     50683 MiB available memory on the printing compute node when the environment starts


     Reading Dynamical Matrix from file AlAs.dyn
     ...Force constants read
     ...epsilon and Z* read

     Polarizability (A^3 units)
     multiply by 0.075026 for Clausius-Mossotti correction
       126.223217   -0.000000   -0.000000
        -0.000000  126.223217    0.000000
         0.000000    0.000000  126.223217

     IR activities are in (D/A)^2/amu units

# mode   [cm-1]    [THz]      IR
    1     -0.00   -0.0000    0.0000
    2      0.00    0.0000    0.0000
    3      0.00    0.0000    0.0000
    4    393.86   11.8075   22.8709
    5    393.86   11.8075   22.8709
    6    430.19   12.8969   22.8709

     DYNMAT       :      0.00s CPU      0.00s WALL


   This run was terminated on:  17:30: 8  21May2025            

=------------------------------------------------------------------------------=
   JOB DONE.
=------------------------------------------------------------------------------=
