ANIMSTEPS    6
CRYSTAL
PRIMVEC
   -2.715340563    0.000000000    2.715340563
    0.000000000    2.715340563    2.715340563
   -2.715340563    2.715340563    0.000000000
PRIMCOORD    1
      2   1
   Si     0.00000   0.00000   0.00000   0.00000   0.07071   0.00000
   Si     1.35767   1.35767   1.35767   0.00000   0.07071   0.00000
PRIMCOORD    2
      2   1
   Si     0.00000   0.00000   0.00000  -0.07071   0.00000   0.00000
   Si     1.35767   1.35767   1.35767  -0.07071   0.00000   0.00000
PRIMCOORD    3
      2   1
   Si     0.00000   0.00000   0.00000   0.00000   0.00000   0.07071
   Si     1.35767   1.35767   1.35767   0.00000   0.00000   0.07071
PRIMCOORD    4
      2   1
   Si     0.00000   0.00000   0.00000   0.00000   0.07071   0.00000
   Si     1.35767   1.35767   1.35767   0.00000  -0.07071   0.00000
PRIMCOORD    5
      2   1
   Si     0.00000   0.00000   0.00000   0.00000   0.00000  -0.07071
   Si     1.35767   1.35767   1.35767   0.00000   0.00000   0.07071
PRIMCOORD    6
      2   1
   Si     0.00000   0.00000   0.00000  -0.07071   0.00000   0.00000
   Si     1.35767   1.35767   1.35767   0.07071   0.00000   0.00000
