
     Program PHONON v.7.2 starts on 21May2025 at 16:36:51 

     This program is part of the open-source Quantum ESPRESSO suite
     for quantum simulation of materials; please cite
         "P. Giannozzi et al., J. Phys.:Condens. Matter 21 395502 (2009);
         "P. Giannozzi et al., J. Phys.:Condens. Matter 29 465901 (2017);
         "P. Giannozzi et al., J. Chem. Phys. 152 154105 (2020);
          URL http://www.quantum-espresso.org", 
     in publications or presentations arising from this work. More details at
     http://www.quantum-espresso.org/quote

     Parallel version (MPI & OpenMP), running on       4 processor cores
     Number of MPI processes:                 4
     Threads/MPI process:                     1

     MPI processes distributed on     1 nodes
     50747 MiB available memory on the printing compute node when the environment starts

     Reading input from Si.ph.in

     Reading xml data from directory:

     ./tmp/Si.save/

     R & G space division:  proc/nbgrp/npool/nimage =       4
     Subspace diagonalization in iterative solution of the eigenvalue problem:
     a serial algorithm will be used


     IMPORTANT: XC functional enforced from input :
     Exchange-correlation= PBE
                           (   1   4   3   4   0   0   0)
     Any further DFT definition will be discarded
     Please, verify this is what you really want


     Parallelization info
     --------------------
     sticks:   dense  smooth     PW     G-vecs:    dense   smooth      PW
     Min         646     214     63                21958     4221     684
     Max         647     215     64                21962     4224     688
     Sum        2587     859    253                87843    16889    2741

     Using Slab Decomposition

     Reading collected, re-writing distributed wavefunctions in ./tmp/

     Calculation of q =    0.0000000   0.0000000   0.0000000

     Phonons at Gamma                                                           

     bravais-lattice index     =            2
     lattice parameter (alat)  =      10.2625  a.u.
     unit-cell volume          =     270.2088 (a.u.)^3
     number of atoms/cell      =            2
     number of atomic types    =            1
     kinetic-energy cut-off    =      60.0000  Ry
     charge density cut-off    =     720.0000  Ry
     convergence threshold     =      1.0E-14
     beta                      =       0.7000
     number of iterations used =            4
     Exchange-correlation= PBE
                           (   1   4   3   4   0   0   0)


     celldm(1)=   10.26250  celldm(2)=    0.00000  celldm(3)=    0.00000
     celldm(4)=    0.00000  celldm(5)=    0.00000  celldm(6)=    0.00000

     crystal axes: (cart. coord. in units of alat)
               a(1) = ( -0.5000  0.0000  0.5000 )  
               a(2) = (  0.0000  0.5000  0.5000 )  
               a(3) = ( -0.5000  0.5000  0.0000 )  

     reciprocal axes: (cart. coord. in units 2 pi/alat)
               b(1) = ( -1.0000 -1.0000  1.0000 )  
               b(2) = (  1.0000  1.0000  1.0000 )  
               b(3) = ( -1.0000  1.0000 -1.0000 )  


     Atoms inside the unit cell: 

     Cartesian axes

     site n.  atom      mass           positions (alat units)
        1     Si  28.0855   tau(    1) = (    0.00000    0.00000    0.00000  )
        2     Si  28.0855   tau(    2) = (    0.25000    0.25000    0.25000  )

     Computing dynamical matrix for 
                    q = (   0.0000000   0.0000000   0.0000000 )

     49 Sym.Ops. (with q -> -q+G )


     G cutoff = 1920.7865  (  21962 G-vectors)     FFT grid: ( 64, 64, 64)
     G cutoff =  640.2622  (   4224 G-vectors)  smooth grid: ( 36, 36, 36)
     number of k points=    10
                       cart. coord. in units 2pi/alat
        k(    1) = (  -0.1250000   0.1250000   0.1250000), wk =   0.0625000
        k(    2) = (  -0.3750000   0.3750000  -0.1250000), wk =   0.1875000
        k(    3) = (   0.3750000  -0.3750000   0.6250000), wk =   0.1875000
        k(    4) = (   0.1250000  -0.1250000   0.3750000), wk =   0.1875000
        k(    5) = (  -0.1250000   0.6250000   0.1250000), wk =   0.1875000
        k(    6) = (   0.6250000  -0.1250000   0.8750000), wk =   0.3750000
        k(    7) = (   0.3750000   0.1250000   0.6250000), wk =   0.3750000
        k(    8) = (  -0.1250000  -0.8750000   0.1250000), wk =   0.1875000
        k(    9) = (  -0.3750000   0.3750000   0.3750000), wk =   0.0625000
        k(   10) = (   0.3750000  -0.3750000   1.1250000), wk =   0.1875000

     PseudoPot. # 1 for Si read from file:
     ../pseudo/Si.pbe-rrkj.UPF
     MD5 check sum: c5f788e1e261afac4ba18be32da5cf3b
     Pseudo is Norm-conserving, Zval =  4.0
     Generated by new atomic code, or converted to UPF format
     Using radial grid of  883 points,  3 beta functions with: 
                l(1) =   0
                l(2) =   0
                l(3) =   1

     Mode symmetry, O_h (m-3m)  point group:


     Electric field:
     Dielectric constant
     Born effective charges as d Force / d E


     Atomic displacements:
     There are    2 irreducible representations

     Representation     1      3 modes -  To be done

     Representation     2      3 modes -  To be done



     Alpha used in Ewald sum =   2.8000
     PHONON       :      0.41s CPU      0.48s WALL


     Electric Fields Calculation

      iter #   1 total cpu time :     1.2 secs   av.it.:   6.3
      thresh= 1.000E-02 alpha_mix =  0.700 |ddv_scf|^2 =  2.603E-08

      iter #   2 total cpu time :     1.7 secs   av.it.:  11.9
      thresh= 1.613E-05 alpha_mix =  0.700 |ddv_scf|^2 =  1.504E-09

      iter #   3 total cpu time :     2.2 secs   av.it.:  11.6
      thresh= 3.878E-06 alpha_mix =  0.700 |ddv_scf|^2 =  9.623E-11

      iter #   4 total cpu time :     2.7 secs   av.it.:  11.2
      thresh= 9.810E-07 alpha_mix =  0.700 |ddv_scf|^2 =  2.763E-13

      iter #   5 total cpu time :     3.2 secs   av.it.:  11.9
      thresh= 5.256E-08 alpha_mix =  0.700 |ddv_scf|^2 =  6.768E-16

     End of electric fields calculation

          Dielectric constant in cartesian axis 

          (      13.581468281       0.000000000      -0.000000000 )
          (      -0.000000000      13.581468281       0.000000000 )
          (      -0.000000000       0.000000000      13.581468281 )

          Effective charges (d Force / dE) in cartesian axis without acoustic sum rule applied (asr)

           atom      1   Si Mean Z*:       -0.06938
      Ex  (       -0.06938       -0.00000       -0.00000 )
      Ey  (       -0.00000       -0.06938       -0.00000 )
      Ez  (       -0.00000       -0.00000       -0.06938 )
           atom      2   Si Mean Z*:       -0.06938
      Ex  (       -0.06938        0.00000        0.00000 )
      Ey  (        0.00000       -0.06938       -0.00000 )
      Ez  (        0.00000       -0.00000       -0.06938 )

          Effective charges Sum: Mean:       -0.13876
             -0.13876        0.00000        0.00000
              0.00000       -0.13876       -0.00000
              0.00000       -0.00000       -0.13876

          Effective charges (d Force / dE) in cartesian axis with asr applied: 
           atom      1   Si Mean Z*:       -0.00000
      E*x (       -0.00000       -0.00000       -0.00000 )
      E*y (       -0.00000        0.00000       -0.00000 )
      E*z (       -0.00000       -0.00000       -0.00000 )
           atom      2   Si Mean Z*:        0.00000
      E*x (        0.00000        0.00000        0.00000 )
      E*y (        0.00000        0.00000        0.00000 )
      E*z (        0.00000        0.00000        0.00000 )


     Representation #   1 modes #   1   2   3

     Self-consistent Calculation

      iter #   1 total cpu time :     3.8 secs   av.it.:   5.7
      thresh= 1.000E-02 alpha_mix =  0.700 |ddv_scf|^2 =  5.814E-09

      iter #   2 total cpu time :     4.4 secs   av.it.:  11.9
      thresh= 7.625E-06 alpha_mix =  0.700 |ddv_scf|^2 =  1.310E-10

      iter #   3 total cpu time :     5.0 secs   av.it.:  11.7
      thresh= 1.145E-06 alpha_mix =  0.700 |ddv_scf|^2 =  8.087E-12

      iter #   4 total cpu time :     5.6 secs   av.it.:  11.0
      thresh= 2.844E-07 alpha_mix =  0.700 |ddv_scf|^2 =  4.293E-15

     End of self-consistent calculation

     Convergence has been achieved 


     Representation #   2 modes #   4   5   6

     Self-consistent Calculation

      iter #   1 total cpu time :     6.1 secs   av.it.:   5.6
      thresh= 1.000E-02 alpha_mix =  0.700 |ddv_scf|^2 =  3.996E-09

      iter #   2 total cpu time :     6.7 secs   av.it.:  12.0
      thresh= 6.321E-06 alpha_mix =  0.700 |ddv_scf|^2 =  1.744E-10

      iter #   3 total cpu time :     7.4 secs   av.it.:  11.8
      thresh= 1.321E-06 alpha_mix =  0.700 |ddv_scf|^2 =  9.062E-12

      iter #   4 total cpu time :     7.9 secs   av.it.:  11.1
      thresh= 3.010E-07 alpha_mix =  0.700 |ddv_scf|^2 =  7.090E-15

     End of self-consistent calculation

     Convergence has been achieved 

     Number of q in the star =    1
     List of q in the star:
          1   0.000000000   0.000000000   0.000000000

          Dielectric constant in cartesian axis 

          (      13.581468281       0.000000000      -0.000000000 )
          (      -0.000000000      13.581468281       0.000000000 )
          (      -0.000000000       0.000000000      13.581468281 )

          Effective charges (d Force / dE) in cartesian axis without acoustic sum rule applied (asr)

           atom      1   Si Mean Z*:       -0.06938
      Ex  (       -0.06938       -0.00000       -0.00000 )
      Ey  (       -0.00000       -0.06938       -0.00000 )
      Ez  (       -0.00000       -0.00000       -0.06938 )
           atom      2   Si Mean Z*:       -0.06938
      Ex  (       -0.06938        0.00000        0.00000 )
      Ey  (        0.00000       -0.06938       -0.00000 )
      Ez  (        0.00000       -0.00000       -0.06938 )

          Effective charges Sum: Mean:       -0.13876
             -0.13876        0.00000        0.00000
              0.00000       -0.13876       -0.00000
              0.00000       -0.00000       -0.13876

          Effective charges (d Force / dE) in cartesian axis with asr applied: 
           atom      1   Si Mean Z*:       -0.00000
      E*x (       -0.00000       -0.00000       -0.00000 )
      E*y (       -0.00000        0.00000       -0.00000 )
      E*z (       -0.00000       -0.00000       -0.00000 )
           atom      2   Si Mean Z*:        0.00000
      E*x (        0.00000        0.00000        0.00000 )
      E*y (        0.00000        0.00000        0.00000 )
      E*z (        0.00000        0.00000        0.00000 )

     Diagonalizing the dynamical matrix

     q = (    0.000000000   0.000000000   0.000000000 ) 

 **************************************************************************
     freq (    1) =       0.369224 [THz] =      12.315990 [cm-1]
     freq (    2) =       0.369224 [THz] =      12.315990 [cm-1]
     freq (    3) =       0.369224 [THz] =      12.315990 [cm-1]
     freq (    4) =      15.306901 [THz] =     510.583264 [cm-1]
     freq (    5) =      15.306901 [THz] =     510.583264 [cm-1]
     freq (    6) =      15.306901 [THz] =     510.583264 [cm-1]
 **************************************************************************

     Mode symmetry, O_h (m-3m)  point group:

     freq (   1-   3) =         12.3  [cm-1]   --> T_1u G_15  G_4- I  
     freq (   4-   6) =        510.6  [cm-1]   --> T_2g G_25' G_5+ R  

     PHONON       :      7.62s CPU      7.96s WALL

     INITIALIZATION: 
     phq_setup    :      0.18s CPU      0.24s WALL (       1 calls)
     phq_init     :      0.04s CPU      0.04s WALL (       1 calls)

     phq_init     :      0.04s CPU      0.04s WALL (       1 calls)
     init_vloc    :      0.00s CPU      0.00s WALL (       1 calls)
     init_us_1    :      0.00s CPU      0.00s WALL (       1 calls)
     init_us_2    :      0.01s CPU      0.01s WALL (     230 calls)

     DIELECTRIC CONSTANT AND EFFECTIVE CHARGES:
     solve_e      :      2.63s CPU      2.73s WALL (       1 calls)
     dielec       :      0.00s CPU      0.00s WALL (       1 calls)
     zstar_eu     :      0.03s CPU      0.03s WALL (       1 calls)

     DYNAMICAL MATRIX:
     dynmat0      :      0.01s CPU      0.01s WALL (       1 calls)
     dynmat_us    :      0.01s CPU      0.01s WALL (       1 calls)
     d2ionq       :      0.00s CPU      0.00s WALL (       1 calls)
     phqscf       :      4.55s CPU      4.72s WALL (       1 calls)
     dynmatrix    :      0.00s CPU      0.00s WALL (       1 calls)

     phqscf       :      4.55s CPU      4.72s WALL (       1 calls)
     solve_linter :      4.55s CPU      4.71s WALL (       2 calls)
     sth_kernel   :      2.13s CPU      2.18s WALL (      13 calls)
     h_prec       :      0.00s CPU      0.00s WALL (     160 calls)
     apply_dpot_b :      0.10s CPU      0.11s WALL (     300 calls)
     ortho        :      0.00s CPU      0.00s WALL (     420 calls)
     cgsolve      :      2.14s CPU      2.18s WALL (     420 calls)
     incdrhoscf   :      0.14s CPU      0.14s WALL (     390 calls)
                                        0.00s GPU  (     390 calls)
     dv_of_drho   :      0.27s CPU      0.30s WALL (      39 calls)
     mix_pot      :      0.03s CPU      0.09s WALL (      13 calls)
     drhodv       :      0.00s CPU      0.00s WALL (       2 calls)
     psymdvscf    :      3.02s CPU      3.07s WALL (       8 calls)

     dvqpsi_us    :      0.05s CPU      0.05s WALL (     120 calls)
                                        0.00s GPU  (     120 calls)
     dvqpsi_us_on :      0.00s CPU      0.00s WALL (     120 calls)

     add_vuspsi   :      0.02s CPU      0.02s WALL (    5284 calls)


      General routines
     calbec       :      0.10s CPU      0.10s WALL (   10938 calls)
     fft          :      0.33s CPU      0.35s WALL (     522 calls)
     ffts         :      0.16s CPU      0.17s WALL (     211 calls)
     fftw         :      1.67s CPU      1.71s WALL (   44494 calls)
     davcio       :      0.02s CPU      0.06s WALL (    1808 calls)
     write_rec    :      0.00s CPU      0.04s WALL (      15 calls)

      Additional routines
     ch_psi       :      2.08s CPU      2.12s WALL (    5284 calls)
     last         :      0.10s CPU      0.10s WALL (    5284 calls)
     Hesh         :      0.00s CPU      0.01s WALL (    5284 calls)
     ch_psi_all_k :      0.09s CPU      0.09s WALL (    5284 calls)
                                        0.00s GPU  (    5284 calls)
     ch_psi_calbe :      0.04s CPU      0.05s WALL (    5284 calls)
                                        0.00s GPU  (    5284 calls)
     h_psi_bgrp   :      1.96s CPU      2.00s WALL (    5284 calls)
     h_psi        :      1.96s CPU      2.00s WALL (    5284 calls)
     h_psi:pot    :      1.95s CPU      1.99s WALL (    5284 calls)
     h_psi:calbec :      0.05s CPU      0.05s WALL (    5284 calls)
     s_psi_bgrp   :      0.01s CPU      0.01s WALL (   10988 calls)


     PHONON       :      7.62s CPU      7.96s WALL


   This run was terminated on:  16:36:59  21May2025            

=------------------------------------------------------------------------------=
   JOB DONE.
=------------------------------------------------------------------------------=
