
     Program PWSCF v.7.2 starts on 21May2025 at 16:36:30 

     This program is part of the open-source Quantum ESPRESSO suite
     for quantum simulation of materials; please cite
         "P. Giannozzi et al., J. Phys.:Condens. Matter 21 395502 (2009);
         "P. Giannozzi et al., J. Phys.:Condens. Matter 29 465901 (2017);
         "P. Giannozzi et al., J. Chem. Phys. 152 154105 (2020);
          URL http://www.quantum-espresso.org", 
     in publications or presentations arising from this work. More details at
     http://www.quantum-espresso.org/quote

     Parallel version (MPI & OpenMP), running on       1 processor cores
     Number of MPI processes:                 1
     Threads/MPI process:                     1

     MPI processes distributed on     1 nodes
     50713 MiB available memory on the printing compute node when the environment starts

     Reading input from Si.scf.in
     Message from routine read_cards :
     DEPRECATED: no units specified in ATOMIC_POSITIONS card
     Message from routine read_cards :
     ATOMIC_POSITIONS: units set to alat

     Current dimensions of program PWSCF are:
     Max number of different atomic species (ntypx) = 10
     Max number of k-points (npk) =  40000
     Max angular momentum in pseudopotentials (lmaxx) =  4
     Message from routine setup:
     no reason to have ecutrho>4*ecutwfc

     Subspace diagonalization in iterative solution of the eigenvalue problem:
     a serial algorithm will be used


     G-vector sticks info
     --------------------
     sticks:   dense  smooth     PW     G-vecs:    dense   smooth      PW
     Sum        2587     859    253                87843    16889    2741

     Using Slab Decomposition



     bravais-lattice index     =            2
     lattice parameter (alat)  =      10.2625  a.u.
     unit-cell volume          =     270.2088 (a.u.)^3
     number of atoms/cell      =            2
     number of atomic types    =            1
     number of electrons       =         8.00
     number of Kohn-Sham states=            4
     kinetic-energy cutoff     =      60.0000  Ry
     charge density cutoff     =     720.0000  Ry
     scf convergence threshold =      1.0E-10
     mixing beta               =       0.7000
     number of iterations used =            8  plain     mixing
     Exchange-correlation= SLA  PW   PBE  PBE
                           (   1   4   3   4   0   0   0)

     celldm(1)=  10.262500  celldm(2)=   0.000000  celldm(3)=   0.000000
     celldm(4)=   0.000000  celldm(5)=   0.000000  celldm(6)=   0.000000

     crystal axes: (cart. coord. in units of alat)
               a(1) = (  -0.500000   0.000000   0.500000 )  
               a(2) = (   0.000000   0.500000   0.500000 )  
               a(3) = (  -0.500000   0.500000   0.000000 )  

     reciprocal axes: (cart. coord. in units 2 pi/alat)
               b(1) = ( -1.000000 -1.000000  1.000000 )  
               b(2) = (  1.000000  1.000000  1.000000 )  
               b(3) = ( -1.000000  1.000000 -1.000000 )  


     PseudoPot. # 1 for Si read from file:
     ../pseudo/Si.pbe-rrkj.UPF
     MD5 check sum: c5f788e1e261afac4ba18be32da5cf3b
     Pseudo is Norm-conserving, Zval =  4.0
     Generated by new atomic code, or converted to UPF format
     Using radial grid of  883 points,  3 beta functions with: 
                l(1) =   0
                l(2) =   0
                l(3) =   1

     atomic species   valence    mass     pseudopotential
        Si             4.00    28.08550     Si( 1.00)

     48 Sym. Ops., with inversion, found (24 have fractional translation)



   Cartesian axes

     site n.     atom                  positions (alat units)
         1           Si  tau(   1) = (   0.0000000   0.0000000   0.0000000  )
         2           Si  tau(   2) = (   0.2500000   0.2500000   0.2500000  )

     number of k points=    10
                       cart. coord. in units 2pi/alat
        k(    1) = (  -0.1250000   0.1250000   0.1250000), wk =   0.0625000
        k(    2) = (  -0.3750000   0.3750000  -0.1250000), wk =   0.1875000
        k(    3) = (   0.3750000  -0.3750000   0.6250000), wk =   0.1875000
        k(    4) = (   0.1250000  -0.1250000   0.3750000), wk =   0.1875000
        k(    5) = (  -0.1250000   0.6250000   0.1250000), wk =   0.1875000
        k(    6) = (   0.6250000  -0.1250000   0.8750000), wk =   0.3750000
        k(    7) = (   0.3750000   0.1250000   0.6250000), wk =   0.3750000
        k(    8) = (  -0.1250000  -0.8750000   0.1250000), wk =   0.1875000
        k(    9) = (  -0.3750000   0.3750000   0.3750000), wk =   0.0625000
        k(   10) = (   0.3750000  -0.3750000   1.1250000), wk =   0.1875000

     Dense  grid:    87843 G-vectors     FFT dimensions: (  64,  64,  64)

     Smooth grid:    16889 G-vectors     FFT dimensions: (  36,  36,  36)

     Estimated max dynamical RAM per process >      56.62 MB

     Initial potential from superposition of free atoms

     starting charge       7.9989, renormalised to       8.0000
     Starting wfcs are    8 randomized atomic wfcs

     total cpu time spent up to now is        0.7 secs

     Self-consistent Calculation

     iteration #  1     ecut=    60.00 Ry     beta= 0.70
     Davidson diagonalization with overlap
     ethr =  1.00E-02,  avg # of iterations =  2.0

     Threshold (ethr) on eigenvalues was too large:
     Diagonalizing with lowered threshold

     Davidson diagonalization with overlap
     ethr =  5.92E-04,  avg # of iterations =  1.8

     total cpu time spent up to now is        0.9 secs

     total energy              =     -15.73871944 Ry
     estimated scf accuracy    <       0.05538351 Ry

     iteration #  2     ecut=    60.00 Ry     beta= 0.70
     Davidson diagonalization with overlap
     ethr =  6.92E-04,  avg # of iterations =  1.0

     total cpu time spent up to now is        1.0 secs

     total energy              =     -15.74050869 Ry
     estimated scf accuracy    <       0.00314890 Ry

     iteration #  3     ecut=    60.00 Ry     beta= 0.70
     Davidson diagonalization with overlap
     ethr =  3.94E-05,  avg # of iterations =  2.3

     total cpu time spent up to now is        1.1 secs

     total energy              =     -15.74116982 Ry
     estimated scf accuracy    <       0.00010587 Ry

     iteration #  4     ecut=    60.00 Ry     beta= 0.70
     Davidson diagonalization with overlap
     ethr =  1.32E-06,  avg # of iterations =  4.3

     total cpu time spent up to now is        1.2 secs

     total energy              =     -15.74122819 Ry
     estimated scf accuracy    <       0.00001402 Ry

     iteration #  5     ecut=    60.00 Ry     beta= 0.70
     Davidson diagonalization with overlap
     ethr =  1.75E-07,  avg # of iterations =  3.3

     total cpu time spent up to now is        1.3 secs

     total energy              =     -15.74123336 Ry
     estimated scf accuracy    <       0.00000036 Ry

     iteration #  6     ecut=    60.00 Ry     beta= 0.70
     Davidson diagonalization with overlap
     ethr =  4.51E-09,  avg # of iterations =  4.4

     total cpu time spent up to now is        1.4 secs

     total energy              =     -15.74123363 Ry
     estimated scf accuracy    <       0.00000002 Ry

     iteration #  7     ecut=    60.00 Ry     beta= 0.70
     Davidson diagonalization with overlap
     ethr =  2.99E-10,  avg # of iterations =  3.4

     total cpu time spent up to now is        1.5 secs

     total energy              =     -15.74123364 Ry
     estimated scf accuracy    <          4.8E-10 Ry

     iteration #  8     ecut=    60.00 Ry     beta= 0.70
     Davidson diagonalization with overlap
     ethr =  5.94E-12,  avg # of iterations =  4.9

     total cpu time spent up to now is        1.6 secs

     End of self-consistent calculation

          k =-0.1250 0.1250 0.1250 (  2112 PWs)   bands (ev):

    -5.4694   4.6493   5.9401   5.9401

          k =-0.3750 0.3750-0.1250 (  2117 PWs)   bands (ev):

    -4.4234   1.6392   3.9308   5.4566

          k = 0.3750-0.3750 0.6250 (  2115 PWs)   bands (ev):

    -3.2527  -0.4833   3.9648   4.6706

          k = 0.1250-0.1250 0.3750 (  2106 PWs)   bands (ev):

    -4.9322   3.0372   4.9140   4.9971

          k =-0.1250 0.6250 0.1250 (  2114 PWs)   bands (ev):

    -3.8823   1.3350   3.5689   4.0262

          k = 0.6250-0.1250 0.8750 (  2132 PWs)   bands (ev):

    -2.2050  -0.6501   2.1798   3.2770

          k = 0.3750 0.1250 0.6250 (  2117 PWs)   bands (ev):

    -3.4556   0.4309   2.9232   4.3060

          k =-0.1250-0.8750 0.1250 (  2127 PWs)   bands (ev):

    -2.3835  -0.5469   2.8023   3.5524

          k =-0.3750 0.3750 0.3750 (  2114 PWs)   bands (ev):

    -3.9792   0.3165   5.1447   5.1447

          k = 0.3750-0.3750 1.1250 (  2125 PWs)   bands (ev):

    -2.7493  -0.3672   2.2512   4.3472

     highest occupied level (ev):     5.9401

!    total energy              =     -15.74123364 Ry
     estimated scf accuracy    <          1.1E-11 Ry

     The total energy is the sum of the following terms:
     one-electron contribution =       4.77321789 Ry
     hartree contribution      =       1.09503413 Ry
     xc contribution           =      -4.81264889 Ry
     ewald contribution        =     -16.79683678 Ry

     convergence has been achieved in   8 iterations

     Writing all to output data dir ./tmp/Si.save/

     init_run     :      0.70s CPU      0.71s WALL (       1 calls)
     electrons    :      0.83s CPU      0.88s WALL (       1 calls)

     Called by init_run:
     wfcinit      :      0.18s CPU      0.18s WALL (       1 calls)
     potinit      :      0.21s CPU      0.21s WALL (       1 calls)
     hinit0       :      0.29s CPU      0.29s WALL (       1 calls)

     Called by electrons:
     c_bands      :      0.40s CPU      0.40s WALL (       9 calls)
     sum_band     :      0.13s CPU      0.13s WALL (       9 calls)
     v_of_rho     :      0.31s CPU      0.36s WALL (       9 calls)
     mix_rho      :      0.02s CPU      0.02s WALL (       9 calls)

     Called by c_bands:
     init_us_2    :      0.02s CPU      0.02s WALL (     190 calls)
     init_us_2:cp :      0.02s CPU      0.02s WALL (     190 calls)
     cegterg      :      0.39s CPU      0.39s WALL (      90 calls)

     Called by *egterg:
     cdiaghg      :      0.00s CPU      0.00s WALL (     354 calls)
     h_psi        :      0.53s CPU      0.53s WALL (     374 calls)
     g_psi        :      0.00s CPU      0.00s WALL (     274 calls)

     Called by h_psi:
     h_psi:calbec :      0.01s CPU      0.01s WALL (     374 calls)
     vloc_psi     :      0.51s CPU      0.51s WALL (     374 calls)
     add_vuspsi   :      0.01s CPU      0.01s WALL (     374 calls)

     General routines
     calbec       :      0.01s CPU      0.01s WALL (     374 calls)
     fft          :      0.35s CPU      0.35s WALL (     106 calls)
     ffts         :      0.17s CPU      0.17s WALL (      18 calls)
     fftw         :      0.41s CPU      0.41s WALL (    2842 calls)
     interpolate  :      0.17s CPU      0.17s WALL (       9 calls)

     Parallel routines

     PWSCF        :      1.54s CPU      1.67s WALL


   This run was terminated on:  16:36:32  21May2025            

=------------------------------------------------------------------------------=
   JOB DONE.
=------------------------------------------------------------------------------=
