
     Program PHONON v.7.2 starts on 21May2025 at 18:57:15 

     This program is part of the open-source Quantum ESPRESSO suite
     for quantum simulation of materials; please cite
         "P. Giannozzi et al., J. Phys.:Condens. Matter 21 395502 (2009);
         "P. Giannozzi et al., J. Phys.:Condens. Matter 29 465901 (2017);
         "P. Giannozzi et al., J. Chem. Phys. 152 154105 (2020);
          URL http://www.quantum-espresso.org", 
     in publications or presentations arising from this work. More details at
     http://www.quantum-espresso.org/quote

     Parallel version (MPI & OpenMP), running on       4 processor cores
     Number of MPI processes:                 4
     Threads/MPI process:                     1

     MPI processes distributed on     1 nodes
     50622 MiB available memory on the printing compute node when the environment starts

     Reading input from AlAs.ph.in

     Reading xml data from directory:

     ./tmp/AlAs.save/

     R & G space division:  proc/nbgrp/npool/nimage =       4
     Subspace diagonalization in iterative solution of the eigenvalue problem:
     a serial algorithm will be used

     file Al.pbe-n-kjpaw_psl.1.0.0.UPF: wavefunction(s)  3S 3P renormalized

     IMPORTANT: XC functional enforced from input :
     Exchange-correlation= PBE
                           (   1   4   3   4   0   0   0)
     Any further DFT definition will be discarded
     Please, verify this is what you really want


     Parallelization info
     --------------------
     sticks:   dense  smooth     PW     G-vecs:    dense   smooth      PW
     Min         267     129     40                 5748     1997     340
     Max         268     130     41                 5750     1999     342
     Sum        1069     517    163                22995     7991    1363

     Using Slab Decomposition

     Reading collected, re-writing distributed wavefunctions in ./tmp/


     Dynamical matrices for ( 4, 4, 4)  uniform grid of q-points
     (   8 q-points):
       N         xq(1)         xq(2)         xq(3) 
       1   0.000000000   0.000000000   0.000000000
       2  -0.250000000   0.250000000  -0.250000000
       3   0.500000000  -0.500000000   0.500000000
       4   0.000000000   0.500000000   0.000000000
       5   0.750000000  -0.250000000   0.750000000
       6   0.500000000   0.000000000   0.500000000
       7   0.000000000  -1.000000000   0.000000000
       8  -0.500000000  -1.000000000   0.000000000

     Calculation of q =    0.0000000   0.0000000   0.0000000

     Phonons on a uniform q-grid                                                

     bravais-lattice index     =            2
     lattice parameter (alat)  =      10.5000  a.u.
     unit-cell volume          =     289.4062 (a.u.)^3
     number of atoms/cell      =            2
     number of atomic types    =            2
     kinetic-energy cut-off    =      35.0000  Ry
     charge density cut-off    =     280.0000  Ry
     convergence threshold     =      1.0E-14
     beta                      =       0.7000
     number of iterations used =            4
     Exchange-correlation= PBE
                           (   1   4   3   4   0   0   0)


     celldm(1)=   10.50000  celldm(2)=    0.00000  celldm(3)=    0.00000
     celldm(4)=    0.00000  celldm(5)=    0.00000  celldm(6)=    0.00000

     crystal axes: (cart. coord. in units of alat)
               a(1) = ( -0.5000  0.0000  0.5000 )  
               a(2) = (  0.0000  0.5000  0.5000 )  
               a(3) = ( -0.5000  0.5000  0.0000 )  

     reciprocal axes: (cart. coord. in units 2 pi/alat)
               b(1) = ( -1.0000 -1.0000  1.0000 )  
               b(2) = (  1.0000  1.0000  1.0000 )  
               b(3) = ( -1.0000  1.0000 -1.0000 )  


     Atoms inside the unit cell: 

     Cartesian axes

     site n.  atom      mass           positions (alat units)
        1     Al  26.9800   tau(    1) = (    0.00000    0.00000    0.00000  )
        2     As  74.9200   tau(    2) = (    0.25000    0.25000    0.25000  )

     Computing dynamical matrix for 
                    q = (   0.0000000   0.0000000   0.0000000 )

     25 Sym.Ops. (with q -> -q+G )


     G cutoff =  781.9462  (   5749 G-vectors)     FFT grid: ( 40, 40, 40)
     G cutoff =  390.9731  (   1997 G-vectors)  smooth grid: ( 27, 27, 27)
     number of k points=     3

     PseudoPot. # 1 for Al read from file:
     ../pseudo/Al.pbe-n-kjpaw_psl.1.0.0.UPF
     MD5 check sum: cfc449ca30b5f3223ec38ddd88ac046d
     Pseudo is Projector augmented-wave + core cor, Zval =  3.0
     Generated using "atomic" code by A. Dal Corso  v.5.1
     Shape of augmentation charge: PSQ
     Using radial grid of 1135 points,  6 beta functions with: 
                l(1) =   0
                l(2) =   0
                l(3) =   1
                l(4) =   1
                l(5) =   2
                l(6) =   2
     Q(r) pseudized with 0 coefficients 


     PseudoPot. # 2 for As read from file:
     ../pseudo/As.pbe-n-rrkjus_psl.0.2.UPF
     MD5 check sum: 767315de957beeeb34f87d97bf945c8f
     Pseudo is Ultrasoft + core correction, Zval =  5.0
     Generated using "atomic" code by A. Dal Corso  v.5.0.99 svn rev. 10869
     Using radial grid of 1209 points,  4 beta functions with: 
                l(1) =   0
                l(2) =   0
                l(3) =   1
                l(4) =   1
     Q(r) pseudized with 0 coefficients 


     Mode symmetry, T_d (-43m)  point group:


     Electric field:
     Dielectric constant
     Born effective charges in two ways 


     Atomic displacements:
     There are    2 irreducible representations

     Representation     1      3 modes -  To be done

     Representation     2      3 modes -  To be done



     Alpha used in Ewald sum =   2.8000
     PHONON       :      0.57s CPU      0.59s WALL


     Electric Fields Calculation

      iter #   1 total cpu time :     1.1 secs   av.it.:   6.9
      thresh= 1.000E-02 alpha_mix =  0.700 |ddv_scf|^2 =  3.512E-07

      iter #   2 total cpu time :     1.5 secs   av.it.:  10.0
      thresh= 5.926E-05 alpha_mix =  0.700 |ddv_scf|^2 =  4.611E-08

      iter #   3 total cpu time :     2.0 secs   av.it.:  10.4
      thresh= 2.147E-05 alpha_mix =  0.700 |ddv_scf|^2 =  4.360E-09

      iter #   4 total cpu time :     2.5 secs   av.it.:  10.6
      thresh= 6.603E-06 alpha_mix =  0.700 |ddv_scf|^2 =  5.437E-11

      iter #   5 total cpu time :     2.9 secs   av.it.:  10.3
      thresh= 7.374E-07 alpha_mix =  0.700 |ddv_scf|^2 =  8.836E-13

      iter #   6 total cpu time :     3.4 secs   av.it.:  10.7
      thresh= 9.400E-08 alpha_mix =  0.700 |ddv_scf|^2 =  1.888E-14

      iter #   7 total cpu time :     3.8 secs   av.it.:  10.2
      thresh= 1.374E-08 alpha_mix =  0.700 |ddv_scf|^2 =  5.145E-17

     End of electric fields calculation

          Dielectric constant in cartesian axis 

          (      37.986037423       0.000000000      -0.000000000 )
          (       0.000000000      37.986037423      -0.000000000 )
          (      -0.000000000      -0.000000000      37.986037423 )

          Effective charges (d Force / dE) in cartesian axis without acoustic sum rule applied (asr)

           atom      1   Al Mean Z*:        0.27773
      Ex  (        0.27773        0.00000       -0.00000 )
      Ey  (       -0.00000        0.27773        0.00000 )
      Ez  (       -0.00000        0.00000        0.27773 )
           atom      2   As Mean Z*:       -8.59116
      Ex  (       -8.59116        0.00000        0.00000 )
      Ey  (        0.00000       -8.59116        0.00000 )
      Ez  (        0.00000        0.00000       -8.59116 )

          Effective charges Sum: Mean:       -8.31343
             -8.31343        0.00000       -0.00000
              0.00000       -8.31343        0.00000
              0.00000        0.00000       -8.31343

          Effective charges (d Force / dE) in cartesian axis with asr applied: 
           atom      1   Al Mean Z*:        4.43445
      E*x (        4.43445       -0.00000       -0.00000 )
      E*y (       -0.00000        4.43445       -0.00000 )
      E*z (       -0.00000       -0.00000        4.43445 )
           atom      2   As Mean Z*:       -4.43445
      E*x (       -4.43445        0.00000        0.00000 )
      E*y (        0.00000       -4.43445        0.00000 )
      E*z (        0.00000        0.00000       -4.43445 )


     Representation #   1 modes #   1   2   3

     Self-consistent Calculation

      iter #   1 total cpu time :     4.3 secs   av.it.:   5.9
      thresh= 1.000E-02 alpha_mix =  0.700 |ddv_scf|^2 =  3.723E-08

      iter #   2 total cpu time :     4.8 secs   av.it.:  10.4
      thresh= 1.929E-05 alpha_mix =  0.700 |ddv_scf|^2 =  2.145E-09

      iter #   3 total cpu time :     5.3 secs   av.it.:  10.6
      thresh= 4.631E-06 alpha_mix =  0.700 |ddv_scf|^2 =  1.616E-10

      iter #   4 total cpu time :     5.8 secs   av.it.:  11.0
      thresh= 1.271E-06 alpha_mix =  0.700 |ddv_scf|^2 =  1.622E-12

      iter #   5 total cpu time :     6.2 secs   av.it.:  10.7
      thresh= 1.273E-07 alpha_mix =  0.700 |ddv_scf|^2 =  6.006E-14

      iter #   6 total cpu time :     6.7 secs   av.it.:  10.7
      thresh= 2.451E-08 alpha_mix =  0.700 |ddv_scf|^2 =  1.148E-15

     End of self-consistent calculation

     Convergence has been achieved 


     Representation #   2 modes #   4   5   6

     Self-consistent Calculation

      iter #   1 total cpu time :     7.2 secs   av.it.:   5.2
      thresh= 1.000E-02 alpha_mix =  0.700 |ddv_scf|^2 =  4.160E-09

      iter #   2 total cpu time :     7.6 secs   av.it.:  10.6
      thresh= 6.450E-06 alpha_mix =  0.700 |ddv_scf|^2 =  3.203E-10

      iter #   3 total cpu time :     8.1 secs   av.it.:  10.9
      thresh= 1.790E-06 alpha_mix =  0.700 |ddv_scf|^2 =  2.392E-11

      iter #   4 total cpu time :     8.6 secs   av.it.:  10.6
      thresh= 4.891E-07 alpha_mix =  0.700 |ddv_scf|^2 =  1.651E-12

      iter #   5 total cpu time :     9.0 secs   av.it.:  10.9
      thresh= 1.285E-07 alpha_mix =  0.700 |ddv_scf|^2 =  2.664E-14

      iter #   6 total cpu time :     9.5 secs   av.it.:  10.3
      thresh= 1.632E-08 alpha_mix =  0.700 |ddv_scf|^2 =  6.603E-17

     End of self-consistent calculation

     Convergence has been achieved 

     Number of q in the star =    1
     List of q in the star:
          1   0.000000000   0.000000000   0.000000000

          Dielectric constant in cartesian axis 

          (      37.986037423       0.000000000      -0.000000000 )
          (       0.000000000      37.986037423      -0.000000000 )
          (      -0.000000000      -0.000000000      37.986037423 )

          Effective charges (d Force / dE) in cartesian axis without acoustic sum rule applied (asr)

           atom      1   Al Mean Z*:        0.27773
      Ex  (        0.27773        0.00000       -0.00000 )
      Ey  (       -0.00000        0.27773        0.00000 )
      Ez  (       -0.00000        0.00000        0.27773 )
           atom      2   As Mean Z*:       -8.59116
      Ex  (       -8.59116        0.00000        0.00000 )
      Ey  (        0.00000       -8.59116        0.00000 )
      Ez  (        0.00000        0.00000       -8.59116 )

          Effective charges Sum: Mean:       -8.31343
             -8.31343        0.00000       -0.00000
              0.00000       -8.31343        0.00000
              0.00000        0.00000       -8.31343

          Effective charges (d Force / dE) in cartesian axis with asr applied: 
           atom      1   Al Mean Z*:        4.43445
      E*x (        4.43445       -0.00000       -0.00000 )
      E*y (       -0.00000        4.43445       -0.00000 )
      E*z (       -0.00000       -0.00000        4.43445 )
           atom      2   As Mean Z*:       -4.43445
      E*x (       -4.43445        0.00000        0.00000 )
      E*y (        0.00000       -4.43445        0.00000 )
      E*z (        0.00000        0.00000       -4.43445 )

          Effective charges (d P / du) in cartesian axis 

           atom      1   Al 
      Px  (        0.27765       -0.00000       -0.00000 )
      Py  (       -0.00000        0.27765       -0.00000 )
      Pz  (       -0.00000       -0.00000        0.27765 )
           atom      2   As 
      Px  (       -8.59173       -0.00000        0.00000 )
      Py  (       -0.00000       -8.59173       -0.00000 )
      Pz  (        0.00000        0.00000       -8.59173 )

     Diagonalizing the dynamical matrix

     q = (    0.000000000   0.000000000   0.000000000 ) 

 **************************************************************************
     freq (    1) =      -0.063176 [THz] =      -2.107310 [cm-1]
     freq (    2) =      -0.063176 [THz] =      -2.107310 [cm-1]
     freq (    3) =      -0.063176 [THz] =      -2.107310 [cm-1]
     freq (    4) =      11.807416 [THz] =     393.853019 [cm-1]
     freq (    5) =      11.807416 [THz] =     393.853019 [cm-1]
     freq (    6) =      11.807416 [THz] =     393.853019 [cm-1]
 **************************************************************************

     Mode symmetry, T_d (-43m)  point group:

     freq (   1-   3) =         -2.1  [cm-1]   --> T_2  G_15 P_4   I+R
     freq (   4-   6) =        393.9  [cm-1]   --> T_2  G_15 P_4   I+R

     Calculation of q =   -0.2500000   0.2500000  -0.2500000

     Parallelization info
     --------------------
     sticks:   dense  smooth     PW     G-vecs:    dense   smooth      PW
     Min         267     129     40                 5748     1996     351
     Max         268     130     41                 5750     1999     354
     Sum        1069     517    163                22995     7991    1411

     Using Slab Decomposition


     Title: 
     Phonons on a uniform q-grid                                                


     bravais-lattice index     =            2
     lattice parameter (alat)  =      10.5000  a.u.
     unit-cell volume          =     289.4062 (a.u.)^3
     number of atoms/cell      =            2
     number of atomic types    =            2
     number of electrons       =         8.00
     number of Kohn-Sham states=            4
     kinetic-energy cutoff     =      35.0000  Ry
     charge density cutoff     =     280.0000  Ry
     Exchange-correlation= PBE
                           (   1   4   3   4   0   0   0)

     celldm(1)=  10.500000  celldm(2)=   0.000000  celldm(3)=   0.000000
     celldm(4)=   0.000000  celldm(5)=   0.000000  celldm(6)=   0.000000

     crystal axes: (cart. coord. in units of alat)
               a(1) = (  -0.500000   0.000000   0.500000 )  
               a(2) = (   0.000000   0.500000   0.500000 )  
               a(3) = (  -0.500000   0.500000   0.000000 )  

     reciprocal axes: (cart. coord. in units 2 pi/alat)
               b(1) = ( -1.000000 -1.000000  1.000000 )  
               b(2) = (  1.000000  1.000000  1.000000 )  
               b(3) = ( -1.000000  1.000000 -1.000000 )  


     PseudoPot. # 1 for Al read from file:
     ../pseudo/Al.pbe-n-kjpaw_psl.1.0.0.UPF
     MD5 check sum: cfc449ca30b5f3223ec38ddd88ac046d
     Pseudo is Projector augmented-wave + core cor, Zval =  3.0
     Generated using "atomic" code by A. Dal Corso  v.5.1
     Shape of augmentation charge: PSQ
     Using radial grid of 1135 points,  6 beta functions with: 
                l(1) =   0
                l(2) =   0
                l(3) =   1
                l(4) =   1
                l(5) =   2
                l(6) =   2
     Q(r) pseudized with 0 coefficients 


     PseudoPot. # 2 for As read from file:
     ../pseudo/As.pbe-n-rrkjus_psl.0.2.UPF
     MD5 check sum: 767315de957beeeb34f87d97bf945c8f
     Pseudo is Ultrasoft + core correction, Zval =  5.0
     Generated using "atomic" code by A. Dal Corso  v.5.0.99 svn rev. 10869
     Using radial grid of 1209 points,  4 beta functions with: 
                l(1) =   0
                l(2) =   0
                l(3) =   1
                l(4) =   1
     Q(r) pseudized with 0 coefficients 


     atomic species   valence    mass     pseudopotential
        Al             3.00    26.98000     Al( 1.00)
        As             5.00    74.92000     As( 1.00)

     24 Sym. Ops. (no inversion) found



   Cartesian axes

     site n.     atom                  positions (alat units)
         1           Al  tau(   1) = (   0.0000000   0.0000000   0.0000000  )
         2           As  tau(   2) = (   0.2500000   0.2500000   0.2500000  )

     number of k points=     8
                       cart. coord. in units 2pi/alat
        k(    1) = (   0.0000000   0.0000000   0.0000000), wk =   0.2500000
        k(    2) = (  -0.2500000   0.2500000  -0.2500000), wk =   0.0000000
        k(    3) = (   0.5000000  -0.5000000   0.5000000), wk =   0.2500000
        k(    4) = (   0.2500000  -0.2500000   0.2500000), wk =   0.0000000
        k(    5) = (   0.0000000  -1.0000000   0.0000000), wk =   0.7500000
        k(    6) = (  -0.2500000  -0.7500000  -0.2500000), wk =   0.0000000
        k(    7) = (  -0.5000000   0.5000000   0.5000000), wk =   0.7500000
        k(    8) = (  -0.7500000   0.7500000   0.2500000), wk =   0.0000000

     Dense  grid:    22995 G-vectors     FFT dimensions: (  40,  40,  40)

     Smooth grid:     7991 G-vectors     FFT dimensions: (  27,  27,  27)

     Estimated max dynamical RAM per process >      21.28 MB

     Estimated total dynamical RAM >      85.10 MB

     The potential is recalculated from file :
     ./tmp/_ph0/AlAs.save/charge-density

     Starting wfcs are    8 atomic wfcs
     Checking if some PAW data can be deallocated... 

     Band Structure Calculation
     Davidson diagonalization with overlap

     ethr =  1.25E-10,  avg # of iterations = 10.8

     total cpu time spent up to now is        0.1 secs

     End of band structure calculation

          k = 0.0000 0.0000 0.0000 (   965 PWs)   bands (ev):

    -6.4383   5.7551   5.7551   5.7551

          k =-0.2500 0.2500-0.2500 (  1001 PWs)   bands (ev):

    -5.7987   2.1878   5.2269   5.2269

          k = 0.5000-0.5000 0.5000 (  1008 PWs)   bands (ev):

    -4.8244  -0.2097   4.8587   4.8587

          k = 0.2500-0.2500 0.2500 (  1001 PWs)   bands (ev):

    -5.7987   2.1878   5.2269   5.2269

          k = 0.0000-1.0000 0.0000 (   998 PWs)   bands (ev):

    -4.1837  -0.0210   3.3775   3.3775

          k =-0.2500-0.7500-0.2500 (  1014 PWs)   bands (ev):

    -4.5647   0.3971   2.7726   3.9805

          k =-0.5000 0.5000 0.5000 (  1008 PWs)   bands (ev):

    -4.8244  -0.2097   4.8587   4.8587

          k =-0.7500 0.7500 0.2500 (  1014 PWs)   bands (ev):

    -4.5647   0.3971   2.7726   3.9805

     highest occupied level (ev):     5.7551

     Writing config to output data dir ./tmp/_ph0/AlAs.save/

     Phonons on a uniform q-grid                                                

     bravais-lattice index     =            2
     lattice parameter (alat)  =      10.5000  a.u.
     unit-cell volume          =     289.4062 (a.u.)^3
     number of atoms/cell      =            2
     number of atomic types    =            2
     kinetic-energy cut-off    =      35.0000  Ry
     charge density cut-off    =     280.0000  Ry
     convergence threshold     =      1.0E-14
     beta                      =       0.7000
     number of iterations used =            4
     Exchange-correlation= PBE
                           (   1   4   3   4   0   0   0)


     celldm(1)=   10.50000  celldm(2)=    0.00000  celldm(3)=    0.00000
     celldm(4)=    0.00000  celldm(5)=    0.00000  celldm(6)=    0.00000

     crystal axes: (cart. coord. in units of alat)
               a(1) = ( -0.5000  0.0000  0.5000 )  
               a(2) = (  0.0000  0.5000  0.5000 )  
               a(3) = ( -0.5000  0.5000  0.0000 )  

     reciprocal axes: (cart. coord. in units 2 pi/alat)
               b(1) = ( -1.0000 -1.0000  1.0000 )  
               b(2) = (  1.0000  1.0000  1.0000 )  
               b(3) = ( -1.0000  1.0000 -1.0000 )  


     Atoms inside the unit cell: 

     Cartesian axes

     site n.  atom      mass           positions (alat units)
        1     Al  26.9800   tau(    1) = (    0.00000    0.00000    0.00000  )
        2     As  74.9200   tau(    2) = (    0.25000    0.25000    0.25000  )

     Computing dynamical matrix for 
                    q = (  -0.2500000   0.2500000  -0.2500000 )

      6 Sym.Ops. (no q -> -q+G )


     G cutoff =  781.9462  (   5749 G-vectors)     FFT grid: ( 40, 40, 40)
     G cutoff =  390.9731  (   1998 G-vectors)  smooth grid: ( 27, 27, 27)
     number of k points=     8

     PseudoPot. # 1 for Al read from file:
     ../pseudo/Al.pbe-n-kjpaw_psl.1.0.0.UPF
     MD5 check sum: cfc449ca30b5f3223ec38ddd88ac046d
     Pseudo is Projector augmented-wave + core cor, Zval =  3.0
     Generated using "atomic" code by A. Dal Corso  v.5.1
     Shape of augmentation charge: PSQ
     Using radial grid of 1135 points,  6 beta functions with: 
                l(1) =   0
                l(2) =   0
                l(3) =   1
                l(4) =   1
                l(5) =   2
                l(6) =   2
     Q(r) pseudized with 0 coefficients 


     PseudoPot. # 2 for As read from file:
     ../pseudo/As.pbe-n-rrkjus_psl.0.2.UPF
     MD5 check sum: 767315de957beeeb34f87d97bf945c8f
     Pseudo is Ultrasoft + core correction, Zval =  5.0
     Generated using "atomic" code by A. Dal Corso  v.5.0.99 svn rev. 10869
     Using radial grid of 1209 points,  4 beta functions with: 
                l(1) =   0
                l(2) =   0
                l(3) =   1
                l(4) =   1
     Q(r) pseudized with 0 coefficients 


     Mode symmetry, C_3v (3m)   point group:


     Atomic displacements:
     There are    4 irreducible representations

     Representation     1      1 modes -  To be done

     Representation     2      1 modes -  To be done

     Representation     3      2 modes -  To be done

     Representation     4      2 modes -  To be done



     Alpha used in Ewald sum =   2.8000
     PHONON       :      9.76s CPU      9.85s WALL



     Representation #   1 mode #   1

     Self-consistent Calculation

      iter #   1 total cpu time :    10.0 secs   av.it.:   5.0
      thresh= 1.000E-02 alpha_mix =  0.700 |ddv_scf|^2 =  6.918E-05

      iter #   2 total cpu time :    10.2 secs   av.it.:   9.2
      thresh= 8.318E-04 alpha_mix =  0.700 |ddv_scf|^2 =  5.213E-04

      iter #   3 total cpu time :    10.4 secs   av.it.:   8.0
      thresh= 2.283E-03 alpha_mix =  0.700 |ddv_scf|^2 =  3.542E-08

      iter #   4 total cpu time :    10.5 secs   av.it.:  10.0
      thresh= 1.882E-05 alpha_mix =  0.700 |ddv_scf|^2 =  2.048E-09

      iter #   5 total cpu time :    10.7 secs   av.it.:  10.0
      thresh= 4.526E-06 alpha_mix =  0.700 |ddv_scf|^2 =  1.162E-10

      iter #   6 total cpu time :    10.8 secs   av.it.:   9.8
      thresh= 1.078E-06 alpha_mix =  0.700 |ddv_scf|^2 =  3.683E-11

      iter #   7 total cpu time :    11.0 secs   av.it.:   8.8
      thresh= 6.068E-07 alpha_mix =  0.700 |ddv_scf|^2 =  3.508E-11

      iter #   8 total cpu time :    11.1 secs   av.it.:   8.2
      thresh= 5.923E-07 alpha_mix =  0.700 |ddv_scf|^2 =  3.344E-13

      iter #   9 total cpu time :    11.3 secs   av.it.:   9.2
      thresh= 5.783E-08 alpha_mix =  0.700 |ddv_scf|^2 =  8.592E-14

      iter #  10 total cpu time :    11.5 secs   av.it.:   9.0
      thresh= 2.931E-08 alpha_mix =  0.700 |ddv_scf|^2 =  2.666E-14

      iter #  11 total cpu time :    11.6 secs   av.it.:   9.2
      thresh= 1.633E-08 alpha_mix =  0.700 |ddv_scf|^2 =  6.207E-16

     End of self-consistent calculation

     Convergence has been achieved 


     Representation #   2 mode #   2

     Self-consistent Calculation

      iter #   1 total cpu time :    11.8 secs   av.it.:   6.2
      thresh= 1.000E-02 alpha_mix =  0.700 |ddv_scf|^2 =  3.109E-04

      iter #   2 total cpu time :    11.9 secs   av.it.:   9.2
      thresh= 1.763E-03 alpha_mix =  0.700 |ddv_scf|^2 =  2.434E-03

      iter #   3 total cpu time :    12.1 secs   av.it.:   8.0
      thresh= 4.933E-03 alpha_mix =  0.700 |ddv_scf|^2 =  1.947E-07

      iter #   4 total cpu time :    12.2 secs   av.it.:  10.0
      thresh= 4.413E-05 alpha_mix =  0.700 |ddv_scf|^2 =  1.089E-08

      iter #   5 total cpu time :    12.4 secs   av.it.:  10.0
      thresh= 1.043E-05 alpha_mix =  0.700 |ddv_scf|^2 =  2.604E-09

      iter #   6 total cpu time :    12.6 secs   av.it.:   8.5
      thresh= 5.103E-06 alpha_mix =  0.700 |ddv_scf|^2 =  2.715E-11

      iter #   7 total cpu time :    12.7 secs   av.it.:   8.8
      thresh= 5.210E-07 alpha_mix =  0.700 |ddv_scf|^2 =  1.534E-11

      iter #   8 total cpu time :    12.9 secs   av.it.:   8.5
      thresh= 3.917E-07 alpha_mix =  0.700 |ddv_scf|^2 =  4.956E-13

      iter #   9 total cpu time :    13.0 secs   av.it.:   9.2
      thresh= 7.040E-08 alpha_mix =  0.700 |ddv_scf|^2 =  6.159E-14

      iter #  10 total cpu time :    13.2 secs   av.it.:   8.8
      thresh= 2.482E-08 alpha_mix =  0.700 |ddv_scf|^2 =  1.099E-16

     End of self-consistent calculation

     Convergence has been achieved 


     Representation #   3 modes #   3   4

     Self-consistent Calculation

      iter #   1 total cpu time :    13.5 secs   av.it.:   6.0
      thresh= 1.000E-02 alpha_mix =  0.700 |ddv_scf|^2 =  1.040E-07

      iter #   2 total cpu time :    13.8 secs   av.it.:  10.8
      thresh= 3.225E-05 alpha_mix =  0.700 |ddv_scf|^2 =  6.081E-09

      iter #   3 total cpu time :    14.1 secs   av.it.:  10.9
      thresh= 7.798E-06 alpha_mix =  0.700 |ddv_scf|^2 =  3.238E-10

      iter #   4 total cpu time :    14.4 secs   av.it.:  10.8
      thresh= 1.799E-06 alpha_mix =  0.700 |ddv_scf|^2 =  2.629E-12

      iter #   5 total cpu time :    14.7 secs   av.it.:  10.6
      thresh= 1.621E-07 alpha_mix =  0.700 |ddv_scf|^2 =  1.383E-13

      iter #   6 total cpu time :    15.0 secs   av.it.:  10.5
      thresh= 3.719E-08 alpha_mix =  0.700 |ddv_scf|^2 =  1.906E-15

     End of self-consistent calculation

     Convergence has been achieved 


     Representation #   4 modes #   5   6

     Self-consistent Calculation

      iter #   1 total cpu time :    15.5 secs   av.it.:   4.5
      thresh= 1.000E-02 alpha_mix =  0.700 |ddv_scf|^2 =  1.287E-08

      iter #   2 total cpu time :    15.8 secs   av.it.:  10.6
      thresh= 1.135E-05 alpha_mix =  0.700 |ddv_scf|^2 =  1.044E-09

      iter #   3 total cpu time :    16.1 secs   av.it.:  10.6
      thresh= 3.231E-06 alpha_mix =  0.700 |ddv_scf|^2 =  9.905E-11

      iter #   4 total cpu time :    16.4 secs   av.it.:  10.5
      thresh= 9.952E-07 alpha_mix =  0.700 |ddv_scf|^2 =  3.811E-12

      iter #   5 total cpu time :    16.7 secs   av.it.:  10.0
      thresh= 1.952E-07 alpha_mix =  0.700 |ddv_scf|^2 =  5.024E-14

      iter #   6 total cpu time :    17.0 secs   av.it.:  10.0
      thresh= 2.241E-08 alpha_mix =  0.700 |ddv_scf|^2 =  9.773E-17

     End of self-consistent calculation

     Convergence has been achieved 

     Number of q in the star =    4
     List of q in the star:
          1  -0.250000000   0.250000000  -0.250000000
          2   0.250000000  -0.250000000  -0.250000000
          3  -0.250000000  -0.250000000   0.250000000
          4   0.250000000   0.250000000   0.250000000
     In addition there is the -q list: 
          1   0.250000000  -0.250000000   0.250000000
          2  -0.250000000   0.250000000   0.250000000
          3   0.250000000   0.250000000  -0.250000000
          4  -0.250000000  -0.250000000  -0.250000000

     Diagonalizing the dynamical matrix

     q = (   -0.250000000   0.250000000  -0.250000000 ) 

 **************************************************************************
     freq (    1) =       2.427507 [THz] =      80.972910 [cm-1]
     freq (    2) =       2.427507 [THz] =      80.972910 [cm-1]
     freq (    3) =       5.552129 [THz] =     185.199083 [cm-1]
     freq (    4) =      11.613333 [THz] =     387.379087 [cm-1]
     freq (    5) =      11.613333 [THz] =     387.379087 [cm-1]
     freq (    6) =      11.949215 [THz] =     398.582912 [cm-1]
 **************************************************************************

     Mode symmetry, C_3v (3m)   point group:

     freq (   1-   2) =         81.0  [cm-1]   --> E    L_3           
     freq (   3-   3) =        185.2  [cm-1]   --> A_1  L_1           
     freq (   4-   5) =        387.4  [cm-1]   --> E    L_3           
     freq (   6-   6) =        398.6  [cm-1]   --> A_1  L_1           

     Calculation of q =    0.5000000  -0.5000000   0.5000000

     Parallelization info
     --------------------
     sticks:   dense  smooth     PW     G-vecs:    dense   smooth      PW
     Min         267     129     46                 5748     1996     409
     Max         268     130     47                 5750     1999     411
     Sum        1069     517    187                22995     7991    1639

     Using Slab Decomposition


     Title: 
     Phonons on a uniform q-grid                                                


     bravais-lattice index     =            2
     lattice parameter (alat)  =      10.5000  a.u.
     unit-cell volume          =     289.4062 (a.u.)^3
     number of atoms/cell      =            2
     number of atomic types    =            2
     number of electrons       =         8.00
     number of Kohn-Sham states=            4
     kinetic-energy cutoff     =      35.0000  Ry
     charge density cutoff     =     280.0000  Ry
     Exchange-correlation= PBE
                           (   1   4   3   4   0   0   0)

     celldm(1)=  10.500000  celldm(2)=   0.000000  celldm(3)=   0.000000
     celldm(4)=   0.000000  celldm(5)=   0.000000  celldm(6)=   0.000000

     crystal axes: (cart. coord. in units of alat)
               a(1) = (  -0.500000   0.000000   0.500000 )  
               a(2) = (   0.000000   0.500000   0.500000 )  
               a(3) = (  -0.500000   0.500000   0.000000 )  

     reciprocal axes: (cart. coord. in units 2 pi/alat)
               b(1) = ( -1.000000 -1.000000  1.000000 )  
               b(2) = (  1.000000  1.000000  1.000000 )  
               b(3) = ( -1.000000  1.000000 -1.000000 )  


     PseudoPot. # 1 for Al read from file:
     ../pseudo/Al.pbe-n-kjpaw_psl.1.0.0.UPF
     MD5 check sum: cfc449ca30b5f3223ec38ddd88ac046d
     Pseudo is Projector augmented-wave + core cor, Zval =  3.0
     Generated using "atomic" code by A. Dal Corso  v.5.1
     Shape of augmentation charge: PSQ
     Using radial grid of 1135 points,  6 beta functions with: 
                l(1) =   0
                l(2) =   0
                l(3) =   1
                l(4) =   1
                l(5) =   2
                l(6) =   2
     Q(r) pseudized with 0 coefficients 


     PseudoPot. # 2 for As read from file:
     ../pseudo/As.pbe-n-rrkjus_psl.0.2.UPF
     MD5 check sum: 767315de957beeeb34f87d97bf945c8f
     Pseudo is Ultrasoft + core correction, Zval =  5.0
     Generated using "atomic" code by A. Dal Corso  v.5.0.99 svn rev. 10869
     Using radial grid of 1209 points,  4 beta functions with: 
                l(1) =   0
                l(2) =   0
                l(3) =   1
                l(4) =   1
     Q(r) pseudized with 0 coefficients 


     atomic species   valence    mass     pseudopotential
        Al             3.00    26.98000     Al( 1.00)
        As             5.00    74.92000     As( 1.00)

     24 Sym. Ops. (no inversion) found



   Cartesian axes

     site n.     atom                  positions (alat units)
         1           Al  tau(   1) = (   0.0000000   0.0000000   0.0000000  )
         2           As  tau(   2) = (   0.2500000   0.2500000   0.2500000  )

     number of k points=     8
                       cart. coord. in units 2pi/alat
        k(    1) = (   0.0000000   0.0000000   0.0000000), wk =   0.2500000
        k(    2) = (   0.5000000  -0.5000000   0.5000000), wk =   0.0000000
        k(    3) = (   0.5000000  -0.5000000   0.5000000), wk =   0.2500000
        k(    4) = (   1.0000000  -1.0000000   1.0000000), wk =   0.0000000
        k(    5) = (   0.0000000  -1.0000000   0.0000000), wk =   0.7500000
        k(    6) = (   0.5000000  -1.5000000   0.5000000), wk =   0.0000000
        k(    7) = (  -0.5000000   0.5000000   0.5000000), wk =   0.7500000
        k(    8) = (   0.0000000   0.0000000   1.0000000), wk =   0.0000000

     Dense  grid:    22995 G-vectors     FFT dimensions: (  40,  40,  40)

     Smooth grid:     7991 G-vectors     FFT dimensions: (  27,  27,  27)

     Estimated max dynamical RAM per process >      21.32 MB

     Estimated total dynamical RAM >      85.27 MB

     The potential is recalculated from file :
     ./tmp/_ph0/AlAs.save/charge-density

     Starting wfcs are    8 atomic wfcs
     Checking if some PAW data can be deallocated... 

     Band Structure Calculation
     Davidson diagonalization with overlap

     ethr =  1.25E-10,  avg # of iterations = 10.5

     total cpu time spent up to now is        0.3 secs

     End of band structure calculation

          k = 0.0000 0.0000 0.0000 (   965 PWs)   bands (ev):

    -6.4383   5.7551   5.7551   5.7551

          k = 0.5000-0.5000 0.5000 (  1008 PWs)   bands (ev):

    -4.8244  -0.2097   4.8587   4.8587

          k = 0.5000-0.5000 0.5000 (  1008 PWs)   bands (ev):

    -4.8244  -0.2097   4.8587   4.8587

          k = 1.0000-1.0000 1.0000 (   965 PWs)   bands (ev):

    -6.4383   5.7551   5.7551   5.7551

          k = 0.0000-1.0000 0.0000 (   998 PWs)   bands (ev):

    -4.1837  -0.0210   3.3775   3.3775

          k = 0.5000-1.5000 0.5000 (  1008 PWs)   bands (ev):

    -4.8244  -0.2097   4.8587   4.8587

          k =-0.5000 0.5000 0.5000 (  1008 PWs)   bands (ev):

    -4.8244  -0.2097   4.8587   4.8587

          k = 0.0000 0.0000 1.0000 (   998 PWs)   bands (ev):

    -4.1837  -0.0210   3.3775   3.3775

     highest occupied level (ev):     5.7551

     Writing config to output data dir ./tmp/_ph0/AlAs.save/

     Phonons on a uniform q-grid                                                

     bravais-lattice index     =            2
     lattice parameter (alat)  =      10.5000  a.u.
     unit-cell volume          =     289.4062 (a.u.)^3
     number of atoms/cell      =            2
     number of atomic types    =            2
     kinetic-energy cut-off    =      35.0000  Ry
     charge density cut-off    =     280.0000  Ry
     convergence threshold     =      1.0E-14
     beta                      =       0.7000
     number of iterations used =            4
     Exchange-correlation= PBE
                           (   1   4   3   4   0   0   0)


     celldm(1)=   10.50000  celldm(2)=    0.00000  celldm(3)=    0.00000
     celldm(4)=    0.00000  celldm(5)=    0.00000  celldm(6)=    0.00000

     crystal axes: (cart. coord. in units of alat)
               a(1) = ( -0.5000  0.0000  0.5000 )  
               a(2) = (  0.0000  0.5000  0.5000 )  
               a(3) = ( -0.5000  0.5000  0.0000 )  

     reciprocal axes: (cart. coord. in units 2 pi/alat)
               b(1) = ( -1.0000 -1.0000  1.0000 )  
               b(2) = (  1.0000  1.0000  1.0000 )  
               b(3) = ( -1.0000  1.0000 -1.0000 )  


     Atoms inside the unit cell: 

     Cartesian axes

     site n.  atom      mass           positions (alat units)
        1     Al  26.9800   tau(    1) = (    0.00000    0.00000    0.00000  )
        2     As  74.9200   tau(    2) = (    0.25000    0.25000    0.25000  )

     Computing dynamical matrix for 
                    q = (   0.5000000  -0.5000000   0.5000000 )

      7 Sym.Ops. (with q -> -q+G )


     G cutoff =  781.9462  (   5749 G-vectors)     FFT grid: ( 40, 40, 40)
     G cutoff =  390.9731  (   1998 G-vectors)  smooth grid: ( 27, 27, 27)
     number of k points=     8

     PseudoPot. # 1 for Al read from file:
     ../pseudo/Al.pbe-n-kjpaw_psl.1.0.0.UPF
     MD5 check sum: cfc449ca30b5f3223ec38ddd88ac046d
     Pseudo is Projector augmented-wave + core cor, Zval =  3.0
     Generated using "atomic" code by A. Dal Corso  v.5.1
     Shape of augmentation charge: PSQ
     Using radial grid of 1135 points,  6 beta functions with: 
                l(1) =   0
                l(2) =   0
                l(3) =   1
                l(4) =   1
                l(5) =   2
                l(6) =   2
     Q(r) pseudized with 0 coefficients 


     PseudoPot. # 2 for As read from file:
     ../pseudo/As.pbe-n-rrkjus_psl.0.2.UPF
     MD5 check sum: 767315de957beeeb34f87d97bf945c8f
     Pseudo is Ultrasoft + core correction, Zval =  5.0
     Generated using "atomic" code by A. Dal Corso  v.5.0.99 svn rev. 10869
     Using radial grid of 1209 points,  4 beta functions with: 
                l(1) =   0
                l(2) =   0
                l(3) =   1
                l(4) =   1
     Q(r) pseudized with 0 coefficients 


     Mode symmetry, C_3v (3m)   point group:


     Atomic displacements:
     There are    4 irreducible representations

     Representation     1      1 modes -  To be done

     Representation     2      1 modes -  To be done

     Representation     3      2 modes -  To be done

     Representation     4      2 modes -  To be done



     Alpha used in Ewald sum =   2.8000
     PHONON       :     17.11s CPU     17.34s WALL



     Representation #   1 mode #   1

     Self-consistent Calculation

      iter #   1 total cpu time :    17.5 secs   av.it.:   5.8
      thresh= 1.000E-02 alpha_mix =  0.700 |ddv_scf|^2 =  6.584E-06

      iter #   2 total cpu time :    17.7 secs   av.it.:  10.0
      thresh= 2.566E-04 alpha_mix =  0.700 |ddv_scf|^2 =  2.037E-05

      iter #   3 total cpu time :    17.8 secs   av.it.:   9.0
      thresh= 4.513E-04 alpha_mix =  0.700 |ddv_scf|^2 =  9.309E-08

      iter #   4 total cpu time :    18.0 secs   av.it.:   9.8
      thresh= 3.051E-05 alpha_mix =  0.700 |ddv_scf|^2 =  8.354E-10

      iter #   5 total cpu time :    18.1 secs   av.it.:  10.0
      thresh= 2.890E-06 alpha_mix =  0.700 |ddv_scf|^2 =  4.734E-11

      iter #   6 total cpu time :    18.3 secs   av.it.:   9.8
      thresh= 6.880E-07 alpha_mix =  0.700 |ddv_scf|^2 =  2.074E-12

      iter #   7 total cpu time :    18.5 secs   av.it.:   9.8
      thresh= 1.440E-07 alpha_mix =  0.700 |ddv_scf|^2 =  1.063E-13

      iter #   8 total cpu time :    18.6 secs   av.it.:   9.8
      thresh= 3.260E-08 alpha_mix =  0.700 |ddv_scf|^2 =  1.718E-14

      iter #   9 total cpu time :    18.8 secs   av.it.:   9.5
      thresh= 1.311E-08 alpha_mix =  0.700 |ddv_scf|^2 =  1.688E-14

      iter #  10 total cpu time :    19.0 secs   av.it.:   9.0
      thresh= 1.299E-08 alpha_mix =  0.700 |ddv_scf|^2 =  5.632E-17

     End of self-consistent calculation

     Convergence has been achieved 


     Representation #   2 mode #   2

     Self-consistent Calculation

      iter #   1 total cpu time :    19.1 secs   av.it.:   6.5
      thresh= 1.000E-02 alpha_mix =  0.700 |ddv_scf|^2 =  4.915E-05

      iter #   2 total cpu time :    19.3 secs   av.it.:   9.5
      thresh= 7.011E-04 alpha_mix =  0.700 |ddv_scf|^2 =  1.715E-04

      iter #   3 total cpu time :    19.4 secs   av.it.:   8.8
      thresh= 1.310E-03 alpha_mix =  0.700 |ddv_scf|^2 =  1.795E-08

      iter #   4 total cpu time :    19.6 secs   av.it.:   9.8
      thresh= 1.340E-05 alpha_mix =  0.700 |ddv_scf|^2 =  1.627E-09

      iter #   5 total cpu time :    19.7 secs   av.it.:  10.0
      thresh= 4.033E-06 alpha_mix =  0.700 |ddv_scf|^2 =  4.795E-11

      iter #   6 total cpu time :    19.9 secs   av.it.:  10.2
      thresh= 6.925E-07 alpha_mix =  0.700 |ddv_scf|^2 =  4.331E-12

      iter #   7 total cpu time :    20.1 secs   av.it.:   9.8
      thresh= 2.081E-07 alpha_mix =  0.700 |ddv_scf|^2 =  1.505E-13

      iter #   8 total cpu time :    20.3 secs   av.it.:   9.8
      thresh= 3.880E-08 alpha_mix =  0.700 |ddv_scf|^2 =  2.069E-14

      iter #   9 total cpu time :    20.5 secs   av.it.:   9.8
      thresh= 1.439E-08 alpha_mix =  0.700 |ddv_scf|^2 =  1.470E-14

      iter #  10 total cpu time :    20.7 secs   av.it.:   9.0
      thresh= 1.213E-08 alpha_mix =  0.700 |ddv_scf|^2 =  1.379E-16

     End of self-consistent calculation

     Convergence has been achieved 


     Representation #   3 modes #   3   4

     Self-consistent Calculation

      iter #   1 total cpu time :    21.0 secs   av.it.:   6.2
      thresh= 1.000E-02 alpha_mix =  0.700 |ddv_scf|^2 =  1.651E-07

      iter #   2 total cpu time :    21.3 secs   av.it.:  10.4
      thresh= 4.063E-05 alpha_mix =  0.700 |ddv_scf|^2 =  2.137E-08

      iter #   3 total cpu time :    21.6 secs   av.it.:  10.5
      thresh= 1.462E-05 alpha_mix =  0.700 |ddv_scf|^2 =  4.974E-10

      iter #   4 total cpu time :    21.9 secs   av.it.:  10.5
      thresh= 2.230E-06 alpha_mix =  0.700 |ddv_scf|^2 =  4.673E-12

      iter #   5 total cpu time :    22.2 secs   av.it.:  10.5
      thresh= 2.162E-07 alpha_mix =  0.700 |ddv_scf|^2 =  2.764E-13

      iter #   6 total cpu time :    22.5 secs   av.it.:  10.1
      thresh= 5.257E-08 alpha_mix =  0.700 |ddv_scf|^2 =  5.058E-15

     End of self-consistent calculation

     Convergence has been achieved 


     Representation #   4 modes #   5   6

     Self-consistent Calculation

      iter #   1 total cpu time :    22.8 secs   av.it.:   4.9
      thresh= 1.000E-02 alpha_mix =  0.700 |ddv_scf|^2 =  1.940E-08

      iter #   2 total cpu time :    23.1 secs   av.it.:  10.5
      thresh= 1.393E-05 alpha_mix =  0.700 |ddv_scf|^2 =  2.708E-09

      iter #   3 total cpu time :    23.4 secs   av.it.:  10.5
      thresh= 5.204E-06 alpha_mix =  0.700 |ddv_scf|^2 =  1.672E-10

      iter #   4 total cpu time :    23.7 secs   av.it.:  10.4
      thresh= 1.293E-06 alpha_mix =  0.700 |ddv_scf|^2 =  5.364E-12

      iter #   5 total cpu time :    24.0 secs   av.it.:   9.9
      thresh= 2.316E-07 alpha_mix =  0.700 |ddv_scf|^2 =  8.454E-14

      iter #   6 total cpu time :    24.3 secs   av.it.:   9.8
      thresh= 2.908E-08 alpha_mix =  0.700 |ddv_scf|^2 =  2.013E-16

     End of self-consistent calculation

     Convergence has been achieved 

     Number of q in the star =    4
     List of q in the star:
          1   0.500000000  -0.500000000   0.500000000
          2  -0.500000000   0.500000000   0.500000000
          3   0.500000000   0.500000000  -0.500000000
          4  -0.500000000  -0.500000000  -0.500000000

     Diagonalizing the dynamical matrix

     q = (    0.500000000  -0.500000000   0.500000000 ) 

 **************************************************************************
     freq (    1) =      -1.841745 [THz] =     -61.433993 [cm-1]
     freq (    2) =      -1.841745 [THz] =     -61.433993 [cm-1]
     freq (    3) =       6.463100 [THz] =     215.585824 [cm-1]
     freq (    4) =      10.883627 [THz] =     363.038714 [cm-1]
     freq (    5) =      10.883627 [THz] =     363.038714 [cm-1]
     freq (    6) =      12.303916 [THz] =     410.414473 [cm-1]
 **************************************************************************

     Mode symmetry, C_3v (3m)   point group:

     freq (   1-   2) =        -61.4  [cm-1]   --> E    L_3           
     freq (   3-   3) =        215.6  [cm-1]   --> A_1  L_1           
     freq (   4-   5) =        363.0  [cm-1]   --> E    L_3           
     freq (   6-   6) =        410.4  [cm-1]   --> A_1  L_1           

     Calculation of q =    0.0000000   0.5000000   0.0000000

     Parallelization info
     --------------------
     sticks:   dense  smooth     PW     G-vecs:    dense   smooth      PW
     Min         267     129     40                 5748     1996     362
     Max         268     130     41                 5750     1999     366
     Sum        1069     517    163                22995     7991    1459

     Using Slab Decomposition


     Title: 
     Phonons on a uniform q-grid                                                


     bravais-lattice index     =            2
     lattice parameter (alat)  =      10.5000  a.u.
     unit-cell volume          =     289.4062 (a.u.)^3
     number of atoms/cell      =            2
     number of atomic types    =            2
     number of electrons       =         8.00
     number of Kohn-Sham states=            4
     kinetic-energy cutoff     =      35.0000  Ry
     charge density cutoff     =     280.0000  Ry
     Exchange-correlation= PBE
                           (   1   4   3   4   0   0   0)

     celldm(1)=  10.500000  celldm(2)=   0.000000  celldm(3)=   0.000000
     celldm(4)=   0.000000  celldm(5)=   0.000000  celldm(6)=   0.000000

     crystal axes: (cart. coord. in units of alat)
               a(1) = (  -0.500000   0.000000   0.500000 )  
               a(2) = (   0.000000   0.500000   0.500000 )  
               a(3) = (  -0.500000   0.500000   0.000000 )  

     reciprocal axes: (cart. coord. in units 2 pi/alat)
               b(1) = ( -1.000000 -1.000000  1.000000 )  
               b(2) = (  1.000000  1.000000  1.000000 )  
               b(3) = ( -1.000000  1.000000 -1.000000 )  


     PseudoPot. # 1 for Al read from file:
     ../pseudo/Al.pbe-n-kjpaw_psl.1.0.0.UPF
     MD5 check sum: cfc449ca30b5f3223ec38ddd88ac046d
     Pseudo is Projector augmented-wave + core cor, Zval =  3.0
     Generated using "atomic" code by A. Dal Corso  v.5.1
     Shape of augmentation charge: PSQ
     Using radial grid of 1135 points,  6 beta functions with: 
                l(1) =   0
                l(2) =   0
                l(3) =   1
                l(4) =   1
                l(5) =   2
                l(6) =   2
     Q(r) pseudized with 0 coefficients 


     PseudoPot. # 2 for As read from file:
     ../pseudo/As.pbe-n-rrkjus_psl.0.2.UPF
     MD5 check sum: 767315de957beeeb34f87d97bf945c8f
     Pseudo is Ultrasoft + core correction, Zval =  5.0
     Generated using "atomic" code by A. Dal Corso  v.5.0.99 svn rev. 10869
     Using radial grid of 1209 points,  4 beta functions with: 
                l(1) =   0
                l(2) =   0
                l(3) =   1
                l(4) =   1
     Q(r) pseudized with 0 coefficients 


     atomic species   valence    mass     pseudopotential
        Al             3.00    26.98000     Al( 1.00)
        As             5.00    74.92000     As( 1.00)

     24 Sym. Ops. (no inversion) found



   Cartesian axes

     site n.     atom                  positions (alat units)
         1           Al  tau(   1) = (   0.0000000   0.0000000   0.0000000  )
         2           As  tau(   2) = (   0.2500000   0.2500000   0.2500000  )

     number of k points=    10
                       cart. coord. in units 2pi/alat
        k(    1) = (   0.0000000   0.0000000   0.0000000), wk =   0.2500000
        k(    2) = (   0.0000000   0.5000000   0.0000000), wk =   0.0000000
        k(    3) = (   0.5000000  -0.5000000   0.5000000), wk =   0.5000000
        k(    4) = (   0.5000000   0.0000000   0.5000000), wk =   0.0000000
        k(    5) = (   0.0000000  -1.0000000   0.0000000), wk =   0.2500000
        k(    6) = (   0.0000000  -0.5000000   0.0000000), wk =   0.0000000
        k(    7) = (  -0.5000000   0.5000000   0.5000000), wk =   0.5000000
        k(    8) = (  -0.5000000   1.0000000   0.5000000), wk =   0.0000000
        k(    9) = (   1.0000000   0.0000000   0.0000000), wk =   0.5000000
        k(   10) = (   1.0000000   0.5000000   0.0000000), wk =   0.0000000

     Dense  grid:    22995 G-vectors     FFT dimensions: (  40,  40,  40)

     Smooth grid:     7991 G-vectors     FFT dimensions: (  27,  27,  27)

     Estimated max dynamical RAM per process >      21.28 MB

     Estimated total dynamical RAM >      85.13 MB

     The potential is recalculated from file :
     ./tmp/_ph0/AlAs.save/charge-density

     Starting wfcs are    8 atomic wfcs
     Checking if some PAW data can be deallocated... 

     Band Structure Calculation
     Davidson diagonalization with overlap

     ethr =  1.25E-10,  avg # of iterations = 10.6

     total cpu time spent up to now is        0.4 secs

     End of band structure calculation

          k = 0.0000 0.0000 0.0000 (   965 PWs)   bands (ev):

    -6.4383   5.7551   5.7551   5.7551

          k = 0.0000 0.5000 0.0000 (   998 PWs)   bands (ev):

    -5.5775   2.4517   4.2666   4.2666

          k = 0.5000-0.5000 0.5000 (  1008 PWs)   bands (ev):

    -4.8244  -0.2097   4.8587   4.8587

          k = 0.5000 0.0000 0.5000 (  1019 PWs)   bands (ev):

    -4.9309   0.9592   2.6052   4.7681

          k = 0.0000-1.0000 0.0000 (   998 PWs)   bands (ev):

    -4.1837  -0.0210   3.3775   3.3775

          k = 0.0000-0.5000 0.0000 (   998 PWs)   bands (ev):

    -5.5775   2.4517   4.2666   4.2666

          k =-0.5000 0.5000 0.5000 (  1008 PWs)   bands (ev):

    -4.8244  -0.2097   4.8587   4.8587

          k =-0.5000 1.0000 0.5000 (  1019 PWs)   bands (ev):

    -4.9309   0.9592   2.6052   4.7681

          k = 1.0000 0.0000 0.0000 (   998 PWs)   bands (ev):

    -4.1837  -0.0210   3.3775   3.3775

          k = 1.0000 0.5000 0.0000 (  1036 PWs)   bands (ev):

    -4.1407   0.3564   2.2693   2.6210

     highest occupied level (ev):     5.7551

     Writing config to output data dir ./tmp/_ph0/AlAs.save/

     Phonons on a uniform q-grid                                                

     bravais-lattice index     =            2
     lattice parameter (alat)  =      10.5000  a.u.
     unit-cell volume          =     289.4062 (a.u.)^3
     number of atoms/cell      =            2
     number of atomic types    =            2
     kinetic-energy cut-off    =      35.0000  Ry
     charge density cut-off    =     280.0000  Ry
     convergence threshold     =      1.0E-14
     beta                      =       0.7000
     number of iterations used =            4
     Exchange-correlation= PBE
                           (   1   4   3   4   0   0   0)


     celldm(1)=   10.50000  celldm(2)=    0.00000  celldm(3)=    0.00000
     celldm(4)=    0.00000  celldm(5)=    0.00000  celldm(6)=    0.00000

     crystal axes: (cart. coord. in units of alat)
               a(1) = ( -0.5000  0.0000  0.5000 )  
               a(2) = (  0.0000  0.5000  0.5000 )  
               a(3) = ( -0.5000  0.5000  0.0000 )  

     reciprocal axes: (cart. coord. in units 2 pi/alat)
               b(1) = ( -1.0000 -1.0000  1.0000 )  
               b(2) = (  1.0000  1.0000  1.0000 )  
               b(3) = ( -1.0000  1.0000 -1.0000 )  


     Atoms inside the unit cell: 

     Cartesian axes

     site n.  atom      mass           positions (alat units)
        1     Al  26.9800   tau(    1) = (    0.00000    0.00000    0.00000  )
        2     As  74.9200   tau(    2) = (    0.25000    0.25000    0.25000  )

     Computing dynamical matrix for 
                    q = (   0.0000000   0.5000000   0.0000000 )

      4 Sym.Ops. (no q -> -q+G )


     G cutoff =  781.9462  (   5749 G-vectors)     FFT grid: ( 40, 40, 40)
     G cutoff =  390.9731  (   1998 G-vectors)  smooth grid: ( 27, 27, 27)
     number of k points=    10

     PseudoPot. # 1 for Al read from file:
     ../pseudo/Al.pbe-n-kjpaw_psl.1.0.0.UPF
     MD5 check sum: cfc449ca30b5f3223ec38ddd88ac046d
     Pseudo is Projector augmented-wave + core cor, Zval =  3.0
     Generated using "atomic" code by A. Dal Corso  v.5.1
     Shape of augmentation charge: PSQ
     Using radial grid of 1135 points,  6 beta functions with: 
                l(1) =   0
                l(2) =   0
                l(3) =   1
                l(4) =   1
                l(5) =   2
                l(6) =   2
     Q(r) pseudized with 0 coefficients 


     PseudoPot. # 2 for As read from file:
     ../pseudo/As.pbe-n-rrkjus_psl.0.2.UPF
     MD5 check sum: 767315de957beeeb34f87d97bf945c8f
     Pseudo is Ultrasoft + core correction, Zval =  5.0
     Generated using "atomic" code by A. Dal Corso  v.5.0.99 svn rev. 10869
     Using radial grid of 1209 points,  4 beta functions with: 
                l(1) =   0
                l(2) =   0
                l(3) =   1
                l(4) =   1
     Q(r) pseudized with 0 coefficients 


     Mode symmetry, C_2v (mm2)  point group:


     Atomic displacements:
     There are    6 irreducible representations

     Representation     1      1 modes -  To be done

     Representation     2      1 modes -  To be done

     Representation     3      1 modes -  To be done

     Representation     4      1 modes -  To be done

     Representation     5      1 modes -  To be done

     Representation     6      1 modes -  To be done



     Alpha used in Ewald sum =   2.8000
     PHONON       :     24.29s CPU     24.71s WALL



     Representation #   1 mode #   1

     Self-consistent Calculation

      iter #   1 total cpu time :    24.9 secs   av.it.:   5.8
      thresh= 1.000E-02 alpha_mix =  0.700 |ddv_scf|^2 =  1.975E-04

      iter #   2 total cpu time :    25.0 secs   av.it.:   8.8
      thresh= 1.405E-03 alpha_mix =  0.700 |ddv_scf|^2 =  1.372E-03

      iter #   3 total cpu time :    25.2 secs   av.it.:   7.6
      thresh= 3.704E-03 alpha_mix =  0.700 |ddv_scf|^2 =  7.032E-08

      iter #   4 total cpu time :    25.4 secs   av.it.:   9.6
      thresh= 2.652E-05 alpha_mix =  0.700 |ddv_scf|^2 =  1.362E-08

      iter #   5 total cpu time :    25.6 secs   av.it.:   9.0
      thresh= 1.167E-05 alpha_mix =  0.700 |ddv_scf|^2 =  1.695E-09

      iter #   6 total cpu time :    25.7 secs   av.it.:   8.4
      thresh= 4.117E-06 alpha_mix =  0.700 |ddv_scf|^2 =  3.775E-12

      iter #   7 total cpu time :    25.9 secs   av.it.:   8.8
      thresh= 1.943E-07 alpha_mix =  0.700 |ddv_scf|^2 =  1.759E-12

      iter #   8 total cpu time :    26.1 secs   av.it.:   8.2
      thresh= 1.326E-07 alpha_mix =  0.700 |ddv_scf|^2 =  6.888E-13

      iter #   9 total cpu time :    26.2 secs   av.it.:   8.4
      thresh= 8.299E-08 alpha_mix =  0.700 |ddv_scf|^2 =  5.211E-14

      iter #  10 total cpu time :    26.4 secs   av.it.:   8.2
      thresh= 2.283E-08 alpha_mix =  0.700 |ddv_scf|^2 =  2.351E-16

     End of self-consistent calculation

     Convergence has been achieved 


     Representation #   2 mode #   2

     Self-consistent Calculation

      iter #   1 total cpu time :    26.5 secs   av.it.:   4.8
      thresh= 1.000E-02 alpha_mix =  0.700 |ddv_scf|^2 =  4.182E-05

      iter #   2 total cpu time :    26.7 secs   av.it.:   8.4
      thresh= 6.467E-04 alpha_mix =  0.700 |ddv_scf|^2 =  2.810E-04

      iter #   3 total cpu time :    26.9 secs   av.it.:   7.6
      thresh= 1.676E-03 alpha_mix =  0.700 |ddv_scf|^2 =  3.743E-08

      iter #   4 total cpu time :    27.0 secs   av.it.:   9.2
      thresh= 1.935E-05 alpha_mix =  0.700 |ddv_scf|^2 =  1.465E-09

      iter #   5 total cpu time :    27.2 secs   av.it.:   9.2
      thresh= 3.827E-06 alpha_mix =  0.700 |ddv_scf|^2 =  1.303E-10

      iter #   6 total cpu time :    27.4 secs   av.it.:   9.0
      thresh= 1.142E-06 alpha_mix =  0.700 |ddv_scf|^2 =  6.646E-12

      iter #   7 total cpu time :    27.5 secs   av.it.:   8.4
      thresh= 2.578E-07 alpha_mix =  0.700 |ddv_scf|^2 =  3.947E-13

      iter #   8 total cpu time :    27.7 secs   av.it.:   8.6
      thresh= 6.282E-08 alpha_mix =  0.700 |ddv_scf|^2 =  7.335E-13

      iter #   9 total cpu time :    27.8 secs   av.it.:   7.8
      thresh= 8.564E-08 alpha_mix =  0.700 |ddv_scf|^2 =  3.119E-14

      iter #  10 total cpu time :    28.0 secs   av.it.:   8.4
      thresh= 1.766E-08 alpha_mix =  0.700 |ddv_scf|^2 =  7.456E-16

     End of self-consistent calculation

     Convergence has been achieved 


     Representation #   3 mode #   3

     Self-consistent Calculation

      iter #   1 total cpu time :    28.1 secs   av.it.:   4.4
      thresh= 1.000E-02 alpha_mix =  0.700 |ddv_scf|^2 =  1.059E-07

      iter #   2 total cpu time :    28.3 secs   av.it.:   9.2
      thresh= 3.254E-05 alpha_mix =  0.700 |ddv_scf|^2 =  1.261E-08

      iter #   3 total cpu time :    28.5 secs   av.it.:   9.4
      thresh= 1.123E-05 alpha_mix =  0.700 |ddv_scf|^2 =  6.018E-10

      iter #   4 total cpu time :    28.6 secs   av.it.:   9.2
      thresh= 2.453E-06 alpha_mix =  0.700 |ddv_scf|^2 =  1.658E-11

      iter #   5 total cpu time :    28.8 secs   av.it.:   8.4
      thresh= 4.072E-07 alpha_mix =  0.700 |ddv_scf|^2 =  6.576E-14

      iter #   6 total cpu time :    28.9 secs   av.it.:   9.4
      thresh= 2.564E-08 alpha_mix =  0.700 |ddv_scf|^2 =  3.711E-16

     End of self-consistent calculation

     Convergence has been achieved 


     Representation #   4 mode #   4

     Self-consistent Calculation

      iter #   1 total cpu time :    29.1 secs   av.it.:   5.6
      thresh= 1.000E-02 alpha_mix =  0.700 |ddv_scf|^2 =  7.363E-07

      iter #   2 total cpu time :    29.3 secs   av.it.:   9.4
      thresh= 8.581E-05 alpha_mix =  0.700 |ddv_scf|^2 =  6.931E-08

      iter #   3 total cpu time :    29.4 secs   av.it.:   9.4
      thresh= 2.633E-05 alpha_mix =  0.700 |ddv_scf|^2 =  1.643E-09

      iter #   4 total cpu time :    29.6 secs   av.it.:   9.4
      thresh= 4.053E-06 alpha_mix =  0.700 |ddv_scf|^2 =  1.399E-11

      iter #   5 total cpu time :    29.7 secs   av.it.:   9.4
      thresh= 3.741E-07 alpha_mix =  0.700 |ddv_scf|^2 =  4.996E-13

      iter #   6 total cpu time :    29.9 secs   av.it.:   9.2
      thresh= 7.068E-08 alpha_mix =  0.700 |ddv_scf|^2 =  6.863E-15

     End of self-consistent calculation

     Convergence has been achieved 


     Representation #   5 mode #   5

     Self-consistent Calculation

      iter #   1 total cpu time :    30.1 secs   av.it.:   5.6
      thresh= 1.000E-02 alpha_mix =  0.700 |ddv_scf|^2 =  7.362E-07

      iter #   2 total cpu time :    30.2 secs   av.it.:   9.4
      thresh= 8.580E-05 alpha_mix =  0.700 |ddv_scf|^2 =  6.927E-08

      iter #   3 total cpu time :    30.5 secs   av.it.:   9.4
      thresh= 2.632E-05 alpha_mix =  0.700 |ddv_scf|^2 =  1.643E-09

      iter #   4 total cpu time :    30.7 secs   av.it.:   9.4
      thresh= 4.054E-06 alpha_mix =  0.700 |ddv_scf|^2 =  1.401E-11

      iter #   5 total cpu time :    30.8 secs   av.it.:   9.4
      thresh= 3.742E-07 alpha_mix =  0.700 |ddv_scf|^2 =  4.993E-13

      iter #   6 total cpu time :    31.0 secs   av.it.:   9.2
      thresh= 7.066E-08 alpha_mix =  0.700 |ddv_scf|^2 =  6.855E-15

     End of self-consistent calculation

     Convergence has been achieved 


     Representation #   6 mode #   6

     Self-consistent Calculation

      iter #   1 total cpu time :    31.1 secs   av.it.:   4.4
      thresh= 1.000E-02 alpha_mix =  0.700 |ddv_scf|^2 =  1.059E-07

      iter #   2 total cpu time :    31.3 secs   av.it.:   9.2
      thresh= 3.254E-05 alpha_mix =  0.700 |ddv_scf|^2 =  1.259E-08

      iter #   3 total cpu time :    31.5 secs   av.it.:   9.4
      thresh= 1.122E-05 alpha_mix =  0.700 |ddv_scf|^2 =  6.017E-10

      iter #   4 total cpu time :    31.6 secs   av.it.:   9.2
      thresh= 2.453E-06 alpha_mix =  0.700 |ddv_scf|^2 =  1.658E-11

      iter #   5 total cpu time :    31.8 secs   av.it.:   8.4
      thresh= 4.072E-07 alpha_mix =  0.700 |ddv_scf|^2 =  6.643E-14

      iter #   6 total cpu time :    31.9 secs   av.it.:   9.4
      thresh= 2.577E-08 alpha_mix =  0.700 |ddv_scf|^2 =  3.710E-16

     End of self-consistent calculation

     Convergence has been achieved 

     Number of q in the star =    6
     List of q in the star:
          1   0.000000000   0.500000000   0.000000000
          2  -0.500000000   0.000000000   0.000000000
          3   0.000000000  -0.500000000   0.000000000
          4   0.000000000   0.000000000   0.500000000
          5   0.000000000   0.000000000  -0.500000000
          6   0.500000000   0.000000000   0.000000000

     Diagonalizing the dynamical matrix

     q = (    0.000000000   0.500000000   0.000000000 ) 

 **************************************************************************
     freq (    1) =       3.517200 [THz] =     117.321172 [cm-1]
     freq (    2) =       3.517200 [THz] =     117.321172 [cm-1]
     freq (    3) =       5.469318 [THz] =     182.436822 [cm-1]
     freq (    4) =      11.118696 [THz] =     370.879784 [cm-1]
     freq (    5) =      11.118696 [THz] =     370.879784 [cm-1]
     freq (    6) =      12.347170 [THz] =     411.857249 [cm-1]
 **************************************************************************

     Mode symmetry, C_2v (mm2)  point group:

     freq (   1-   1) =        117.3  [cm-1]   --> B_1  D_3  S_3      
     freq (   2-   2) =        117.3  [cm-1]   --> B_2  D_4  S_4      
     freq (   3-   3) =        182.4  [cm-1]   --> A_1  D_1  S_1      
     freq (   4-   4) =        370.9  [cm-1]   --> B_1  D_3  S_3      
     freq (   5-   5) =        370.9  [cm-1]   --> B_2  D_4  S_4      
     freq (   6-   6) =        411.9  [cm-1]   --> A_1  D_1  S_1      

     Calculation of q =    0.7500000  -0.2500000   0.7500000

     Parallelization info
     --------------------
     sticks:   dense  smooth     PW     G-vecs:    dense   smooth      PW
     Min         267     129     49                 5748     1996     439
     Max         268     130     50                 5750     1999     440
     Sum        1069     517    199                22995     7991    1759

     Using Slab Decomposition


     Title: 
     Phonons on a uniform q-grid                                                


     bravais-lattice index     =            2
     lattice parameter (alat)  =      10.5000  a.u.
     unit-cell volume          =     289.4062 (a.u.)^3
     number of atoms/cell      =            2
     number of atomic types    =            2
     number of electrons       =         8.00
     number of Kohn-Sham states=            4
     kinetic-energy cutoff     =      35.0000  Ry
     charge density cutoff     =     280.0000  Ry
     Exchange-correlation= PBE
                           (   1   4   3   4   0   0   0)

     celldm(1)=  10.500000  celldm(2)=   0.000000  celldm(3)=   0.000000
     celldm(4)=   0.000000  celldm(5)=   0.000000  celldm(6)=   0.000000

     crystal axes: (cart. coord. in units of alat)
               a(1) = (  -0.500000   0.000000   0.500000 )  
               a(2) = (   0.000000   0.500000   0.500000 )  
               a(3) = (  -0.500000   0.500000   0.000000 )  

     reciprocal axes: (cart. coord. in units 2 pi/alat)
               b(1) = ( -1.000000 -1.000000  1.000000 )  
               b(2) = (  1.000000  1.000000  1.000000 )  
               b(3) = ( -1.000000  1.000000 -1.000000 )  


     PseudoPot. # 1 for Al read from file:
     ../pseudo/Al.pbe-n-kjpaw_psl.1.0.0.UPF
     MD5 check sum: cfc449ca30b5f3223ec38ddd88ac046d
     Pseudo is Projector augmented-wave + core cor, Zval =  3.0
     Generated using "atomic" code by A. Dal Corso  v.5.1
     Shape of augmentation charge: PSQ
     Using radial grid of 1135 points,  6 beta functions with: 
                l(1) =   0
                l(2) =   0
                l(3) =   1
                l(4) =   1
                l(5) =   2
                l(6) =   2
     Q(r) pseudized with 0 coefficients 


     PseudoPot. # 2 for As read from file:
     ../pseudo/As.pbe-n-rrkjus_psl.0.2.UPF
     MD5 check sum: 767315de957beeeb34f87d97bf945c8f
     Pseudo is Ultrasoft + core correction, Zval =  5.0
     Generated using "atomic" code by A. Dal Corso  v.5.0.99 svn rev. 10869
     Using radial grid of 1209 points,  4 beta functions with: 
                l(1) =   0
                l(2) =   0
                l(3) =   1
                l(4) =   1
     Q(r) pseudized with 0 coefficients 


     atomic species   valence    mass     pseudopotential
        Al             3.00    26.98000     Al( 1.00)
        As             5.00    74.92000     As( 1.00)

     24 Sym. Ops. (no inversion) found



   Cartesian axes

     site n.     atom                  positions (alat units)
         1           Al  tau(   1) = (   0.0000000   0.0000000   0.0000000  )
         2           As  tau(   2) = (   0.2500000   0.2500000   0.2500000  )

     number of k points=    12
                       cart. coord. in units 2pi/alat
        k(    1) = (   0.0000000   0.0000000   0.0000000), wk =   0.2500000
        k(    2) = (   0.7500000  -0.2500000   0.7500000), wk =   0.0000000
        k(    3) = (   0.5000000  -0.5000000   0.5000000), wk =   0.2500000
        k(    4) = (   1.2500000  -0.7500000   1.2500000), wk =   0.0000000
        k(    5) = (   0.0000000  -1.0000000   0.0000000), wk =   0.2500000
        k(    6) = (   0.7500000  -1.2500000   0.7500000), wk =   0.0000000
        k(    7) = (  -0.5000000  -0.5000000  -0.5000000), wk =   0.2500000
        k(    8) = (   0.2500000  -0.7500000   0.2500000), wk =   0.0000000
        k(    9) = (  -0.5000000   0.5000000   0.5000000), wk =   0.5000000
        k(   10) = (   0.2500000   0.2500000   1.2500000), wk =   0.0000000
        k(   11) = (   1.0000000   0.0000000   0.0000000), wk =   0.5000000
        k(   12) = (   1.7500000  -0.2500000   0.7500000), wk =   0.0000000

     Dense  grid:    22995 G-vectors     FFT dimensions: (  40,  40,  40)

     Smooth grid:     7991 G-vectors     FFT dimensions: (  27,  27,  27)

     Estimated max dynamical RAM per process >      21.34 MB

     Estimated total dynamical RAM >      85.35 MB

     The potential is recalculated from file :
     ./tmp/_ph0/AlAs.save/charge-density

     Starting wfcs are    8 atomic wfcs
     Checking if some PAW data can be deallocated... 

     Band Structure Calculation
     Davidson diagonalization with overlap

     ethr =  1.25E-10,  avg # of iterations = 10.6

     total cpu time spent up to now is        0.5 secs

     End of band structure calculation

          k = 0.0000 0.0000 0.0000 (   965 PWs)   bands (ev):

    -6.4383   5.7551   5.7551   5.7551

          k = 0.7500-0.2500 0.7500 (  1014 PWs)   bands (ev):

    -4.5647   0.3971   2.7726   3.9805

          k = 0.5000-0.5000 0.5000 (  1008 PWs)   bands (ev):

    -4.8244  -0.2097   4.8587   4.8587

          k = 1.2500-0.7500 1.2500 (  1001 PWs)   bands (ev):

    -5.7987   2.1878   5.2269   5.2269

          k = 0.0000-1.0000 0.0000 (   998 PWs)   bands (ev):

    -4.1837  -0.0210   3.3775   3.3775

          k = 0.7500-1.2500 0.7500 (  1001 PWs)   bands (ev):

    -5.7987   2.1878   5.2269   5.2269

          k =-0.5000-0.5000-0.5000 (  1008 PWs)   bands (ev):

    -4.8244  -0.2097   4.8587   4.8587

          k = 0.2500-0.7500 0.2500 (  1014 PWs)   bands (ev):

    -4.5647   0.3971   2.7726   3.9805

          k =-0.5000 0.5000 0.5000 (  1008 PWs)   bands (ev):

    -4.8244  -0.2097   4.8587   4.8587

          k = 0.2500 0.2500 1.2500 (  1014 PWs)   bands (ev):

    -4.5647   0.3971   2.7726   3.9805

          k = 1.0000 0.0000 0.0000 (   998 PWs)   bands (ev):

    -4.1837  -0.0210   3.3775   3.3775

          k = 1.7500-0.2500 0.7500 (  1014 PWs)   bands (ev):

    -4.5647   0.3971   2.7726   3.9805

     highest occupied level (ev):     5.7551

     Writing config to output data dir ./tmp/_ph0/AlAs.save/

     Phonons on a uniform q-grid                                                

     bravais-lattice index     =            2
     lattice parameter (alat)  =      10.5000  a.u.
     unit-cell volume          =     289.4062 (a.u.)^3
     number of atoms/cell      =            2
     number of atomic types    =            2
     kinetic-energy cut-off    =      35.0000  Ry
     charge density cut-off    =     280.0000  Ry
     convergence threshold     =      1.0E-14
     beta                      =       0.7000
     number of iterations used =            4
     Exchange-correlation= PBE
                           (   1   4   3   4   0   0   0)


     celldm(1)=   10.50000  celldm(2)=    0.00000  celldm(3)=    0.00000
     celldm(4)=    0.00000  celldm(5)=    0.00000  celldm(6)=    0.00000

     crystal axes: (cart. coord. in units of alat)
               a(1) = ( -0.5000  0.0000  0.5000 )  
               a(2) = (  0.0000  0.5000  0.5000 )  
               a(3) = ( -0.5000  0.5000  0.0000 )  

     reciprocal axes: (cart. coord. in units 2 pi/alat)
               b(1) = ( -1.0000 -1.0000  1.0000 )  
               b(2) = (  1.0000  1.0000  1.0000 )  
               b(3) = ( -1.0000  1.0000 -1.0000 )  


     Atoms inside the unit cell: 

     Cartesian axes

     site n.  atom      mass           positions (alat units)
        1     Al  26.9800   tau(    1) = (    0.00000    0.00000    0.00000  )
        2     As  74.9200   tau(    2) = (    0.25000    0.25000    0.25000  )

     Computing dynamical matrix for 
                    q = (   0.7500000  -0.2500000   0.7500000 )

      2 Sym.Ops. (no q -> -q+G )


     G cutoff =  781.9462  (   5749 G-vectors)     FFT grid: ( 40, 40, 40)
     G cutoff =  390.9731  (   1998 G-vectors)  smooth grid: ( 27, 27, 27)
     number of k points=    12

     PseudoPot. # 1 for Al read from file:
     ../pseudo/Al.pbe-n-kjpaw_psl.1.0.0.UPF
     MD5 check sum: cfc449ca30b5f3223ec38ddd88ac046d
     Pseudo is Projector augmented-wave + core cor, Zval =  3.0
     Generated using "atomic" code by A. Dal Corso  v.5.1
     Shape of augmentation charge: PSQ
     Using radial grid of 1135 points,  6 beta functions with: 
                l(1) =   0
                l(2) =   0
                l(3) =   1
                l(4) =   1
                l(5) =   2
                l(6) =   2
     Q(r) pseudized with 0 coefficients 


     PseudoPot. # 2 for As read from file:
     ../pseudo/As.pbe-n-rrkjus_psl.0.2.UPF
     MD5 check sum: 767315de957beeeb34f87d97bf945c8f
     Pseudo is Ultrasoft + core correction, Zval =  5.0
     Generated using "atomic" code by A. Dal Corso  v.5.0.99 svn rev. 10869
     Using radial grid of 1209 points,  4 beta functions with: 
                l(1) =   0
                l(2) =   0
                l(3) =   1
                l(4) =   1
     Q(r) pseudized with 0 coefficients 


     Mode symmetry, C_s (m)     point group:


     Atomic displacements:
     There are    6 irreducible representations

     Representation     1      1 modes -  To be done

     Representation     2      1 modes -  To be done

     Representation     3      1 modes -  To be done

     Representation     4      1 modes -  To be done

     Representation     5      1 modes -  To be done

     Representation     6      1 modes -  To be done



     Alpha used in Ewald sum =   2.8000
     PHONON       :     31.68s CPU     32.34s WALL



     Representation #   1 mode #   1

     Self-consistent Calculation

      iter #   1 total cpu time :    32.5 secs   av.it.:   5.7
      thresh= 1.000E-02 alpha_mix =  0.700 |ddv_scf|^2 =  4.360E-06

      iter #   2 total cpu time :    32.7 secs   av.it.:  10.5
      thresh= 2.088E-04 alpha_mix =  0.700 |ddv_scf|^2 =  9.148E-06

      iter #   3 total cpu time :    32.8 secs   av.it.:   9.7
      thresh= 3.025E-04 alpha_mix =  0.700 |ddv_scf|^2 =  5.662E-08

      iter #   4 total cpu time :    33.0 secs   av.it.:  10.0
      thresh= 2.379E-05 alpha_mix =  0.700 |ddv_scf|^2 =  1.057E-09

      iter #   5 total cpu time :    33.2 secs   av.it.:  10.0
      thresh= 3.251E-06 alpha_mix =  0.700 |ddv_scf|^2 =  8.545E-11

      iter #   6 total cpu time :    33.3 secs   av.it.:  10.7
      thresh= 9.244E-07 alpha_mix =  0.700 |ddv_scf|^2 =  8.729E-12

      iter #   7 total cpu time :    33.5 secs   av.it.:  10.2
      thresh= 2.954E-07 alpha_mix =  0.700 |ddv_scf|^2 =  3.700E-13

      iter #   8 total cpu time :    33.7 secs   av.it.:  10.0
      thresh= 6.083E-08 alpha_mix =  0.700 |ddv_scf|^2 =  1.548E-13

      iter #   9 total cpu time :    33.8 secs   av.it.:   9.8
      thresh= 3.935E-08 alpha_mix =  0.700 |ddv_scf|^2 =  5.442E-14

      iter #  10 total cpu time :    34.0 secs   av.it.:  10.0
      thresh= 2.333E-08 alpha_mix =  0.700 |ddv_scf|^2 =  6.384E-15

     End of self-consistent calculation

     Convergence has been achieved 


     Representation #   2 mode #   2

     Self-consistent Calculation

      iter #   1 total cpu time :    34.2 secs   av.it.:   6.5
      thresh= 1.000E-02 alpha_mix =  0.700 |ddv_scf|^2 =  1.609E-05

      iter #   2 total cpu time :    34.3 secs   av.it.:  10.5
      thresh= 4.012E-04 alpha_mix =  0.700 |ddv_scf|^2 =  3.713E-05

      iter #   3 total cpu time :    34.5 secs   av.it.:   9.7
      thresh= 6.093E-04 alpha_mix =  0.700 |ddv_scf|^2 =  8.201E-08

      iter #   4 total cpu time :    34.6 secs   av.it.:  10.3
      thresh= 2.864E-05 alpha_mix =  0.700 |ddv_scf|^2 =  2.356E-09

      iter #   5 total cpu time :    34.8 secs   av.it.:  10.7
      thresh= 4.854E-06 alpha_mix =  0.700 |ddv_scf|^2 =  1.644E-10

      iter #   6 total cpu time :    35.0 secs   av.it.:  10.0
      thresh= 1.282E-06 alpha_mix =  0.700 |ddv_scf|^2 =  1.862E-11

      iter #   7 total cpu time :    35.1 secs   av.it.:  10.0
      thresh= 4.315E-07 alpha_mix =  0.700 |ddv_scf|^2 =  8.322E-13

      iter #   8 total cpu time :    35.3 secs   av.it.:  10.0
      thresh= 9.123E-08 alpha_mix =  0.700 |ddv_scf|^2 =  3.124E-13

      iter #   9 total cpu time :    35.5 secs   av.it.:   9.7
      thresh= 5.589E-08 alpha_mix =  0.700 |ddv_scf|^2 =  1.669E-14

      iter #  10 total cpu time :    35.7 secs   av.it.:  10.2
      thresh= 1.292E-08 alpha_mix =  0.700 |ddv_scf|^2 =  3.033E-15

     End of self-consistent calculation

     Convergence has been achieved 


     Representation #   3 mode #   3

     Self-consistent Calculation

      iter #   1 total cpu time :    35.9 secs   av.it.:   6.3
      thresh= 1.000E-02 alpha_mix =  0.700 |ddv_scf|^2 =  1.543E-05

      iter #   2 total cpu time :    36.0 secs   av.it.:  10.3
      thresh= 3.928E-04 alpha_mix =  0.700 |ddv_scf|^2 =  3.496E-05

      iter #   3 total cpu time :    36.2 secs   av.it.:   9.7
      thresh= 5.913E-04 alpha_mix =  0.700 |ddv_scf|^2 =  1.637E-07

      iter #   4 total cpu time :    36.4 secs   av.it.:  10.0
      thresh= 4.046E-05 alpha_mix =  0.700 |ddv_scf|^2 =  3.232E-09

      iter #   5 total cpu time :    36.5 secs   av.it.:  10.5
      thresh= 5.685E-06 alpha_mix =  0.700 |ddv_scf|^2 =  4.257E-10

      iter #   6 total cpu time :    36.7 secs   av.it.:  10.7
      thresh= 2.063E-06 alpha_mix =  0.700 |ddv_scf|^2 =  1.078E-11

      iter #   7 total cpu time :    36.9 secs   av.it.:  10.3
      thresh= 3.283E-07 alpha_mix =  0.700 |ddv_scf|^2 =  3.809E-13

      iter #   8 total cpu time :    37.0 secs   av.it.:  10.2
      thresh= 6.171E-08 alpha_mix =  0.700 |ddv_scf|^2 =  2.767E-13

      iter #   9 total cpu time :    37.2 secs   av.it.:   9.8
      thresh= 5.260E-08 alpha_mix =  0.700 |ddv_scf|^2 =  3.161E-14

      iter #  10 total cpu time :    37.4 secs   av.it.:  10.0
      thresh= 1.778E-08 alpha_mix =  0.700 |ddv_scf|^2 =  4.179E-15

     End of self-consistent calculation

     Convergence has been achieved 


     Representation #   4 mode #   4

     Self-consistent Calculation

      iter #   1 total cpu time :    37.5 secs   av.it.:   5.0
      thresh= 1.000E-02 alpha_mix =  0.700 |ddv_scf|^2 =  7.380E-07

      iter #   2 total cpu time :    37.7 secs   av.it.:  10.8
      thresh= 8.591E-05 alpha_mix =  0.700 |ddv_scf|^2 =  9.097E-07

      iter #   3 total cpu time :    37.8 secs   av.it.:   9.8
      thresh= 9.538E-05 alpha_mix =  0.700 |ddv_scf|^2 =  3.752E-08

      iter #   4 total cpu time :    38.0 secs   av.it.:   9.8
      thresh= 1.937E-05 alpha_mix =  0.700 |ddv_scf|^2 =  1.002E-09

      iter #   5 total cpu time :    38.2 secs   av.it.:  10.0
      thresh= 3.165E-06 alpha_mix =  0.700 |ddv_scf|^2 =  1.877E-10

      iter #   6 total cpu time :    38.3 secs   av.it.:  10.0
      thresh= 1.370E-06 alpha_mix =  0.700 |ddv_scf|^2 =  9.967E-12

      iter #   7 total cpu time :    38.5 secs   av.it.:   9.8
      thresh= 3.157E-07 alpha_mix =  0.700 |ddv_scf|^2 =  3.400E-13

      iter #   8 total cpu time :    38.7 secs   av.it.:   9.8
      thresh= 5.831E-08 alpha_mix =  0.700 |ddv_scf|^2 =  6.956E-14

      iter #   9 total cpu time :    38.8 secs   av.it.:   9.8
      thresh= 2.637E-08 alpha_mix =  0.700 |ddv_scf|^2 =  8.654E-15

     End of self-consistent calculation

     Convergence has been achieved 


     Representation #   5 mode #   5

     Self-consistent Calculation

      iter #   1 total cpu time :    39.0 secs   av.it.:   5.8
      thresh= 1.000E-02 alpha_mix =  0.700 |ddv_scf|^2 =  9.994E-07

      iter #   2 total cpu time :    39.2 secs   av.it.:   9.5
      thresh= 9.997E-05 alpha_mix =  0.700 |ddv_scf|^2 =  1.516E-07

      iter #   3 total cpu time :    39.3 secs   av.it.:   9.5
      thresh= 3.894E-05 alpha_mix =  0.700 |ddv_scf|^2 =  1.899E-09

      iter #   4 total cpu time :    39.5 secs   av.it.:  10.0
      thresh= 4.357E-06 alpha_mix =  0.700 |ddv_scf|^2 =  1.868E-11

      iter #   5 total cpu time :    39.7 secs   av.it.:   9.8
      thresh= 4.322E-07 alpha_mix =  0.700 |ddv_scf|^2 =  6.242E-13

      iter #   6 total cpu time :    39.8 secs   av.it.:   9.3
      thresh= 7.901E-08 alpha_mix =  0.700 |ddv_scf|^2 =  6.870E-15

     End of self-consistent calculation

     Convergence has been achieved 


     Representation #   6 mode #   6

     Self-consistent Calculation

      iter #   1 total cpu time :    40.0 secs   av.it.:   4.5
      thresh= 1.000E-02 alpha_mix =  0.700 |ddv_scf|^2 =  1.467E-07

      iter #   2 total cpu time :    40.1 secs   av.it.:   9.5
      thresh= 3.830E-05 alpha_mix =  0.700 |ddv_scf|^2 =  2.592E-08

      iter #   3 total cpu time :    40.3 secs   av.it.:   9.5
      thresh= 1.610E-05 alpha_mix =  0.700 |ddv_scf|^2 =  7.040E-10

      iter #   4 total cpu time :    40.5 secs   av.it.:   9.2
      thresh= 2.653E-06 alpha_mix =  0.700 |ddv_scf|^2 =  1.852E-11

      iter #   5 total cpu time :    40.6 secs   av.it.:   8.7
      thresh= 4.303E-07 alpha_mix =  0.700 |ddv_scf|^2 =  4.480E-14

      iter #   6 total cpu time :    40.8 secs   av.it.:   9.3
      thresh= 2.117E-08 alpha_mix =  0.700 |ddv_scf|^2 =  3.087E-16

     End of self-consistent calculation

     Convergence has been achieved 

     Number of q in the star =   12
     List of q in the star:
          1   0.750000000  -0.250000000   0.750000000
          2  -0.750000000  -0.250000000  -0.750000000
          3   0.250000000  -0.750000000   0.750000000
          4  -0.750000000   0.250000000   0.750000000
          5   0.750000000   0.250000000  -0.750000000
          6   0.750000000   0.750000000  -0.250000000
          7  -0.750000000  -0.750000000  -0.250000000
          8  -0.750000000   0.750000000   0.250000000
          9  -0.250000000   0.750000000   0.750000000
         10   0.250000000   0.750000000  -0.750000000
         11  -0.250000000  -0.750000000  -0.750000000
         12   0.750000000  -0.750000000   0.250000000
     In addition there is the -q list: 
          1  -0.750000000   0.250000000  -0.750000000
          2   0.750000000   0.250000000   0.750000000
          3  -0.250000000   0.750000000  -0.750000000
          4   0.750000000  -0.250000000  -0.750000000
          5  -0.750000000  -0.250000000   0.750000000
          6  -0.750000000  -0.750000000   0.250000000
          7   0.750000000   0.750000000   0.250000000
          8   0.750000000  -0.750000000  -0.250000000
          9   0.250000000  -0.750000000  -0.750000000
         10  -0.250000000  -0.750000000   0.750000000
         11   0.250000000   0.750000000   0.750000000
         12  -0.750000000   0.750000000  -0.250000000

     Diagonalizing the dynamical matrix

     q = (    0.750000000  -0.250000000   0.750000000 ) 

 **************************************************************************
     freq (    1) =       3.090115 [THz] =     103.075133 [cm-1]
     freq (    2) =       5.011034 [THz] =     167.150113 [cm-1]
     freq (    3) =       6.332296 [THz] =     211.222673 [cm-1]
[...]
        As             5.00    74.92000     As( 1.00)

     24 Sym. Ops. (no inversion) found



   Cartesian axes

     site n.     atom                  positions (alat units)
         1           Al  tau(   1) = (   0.0000000   0.0000000   0.0000000  )
         2           As  tau(   2) = (   0.2500000   0.2500000   0.2500000  )

     number of k points=     8
                       cart. coord. in units 2pi/alat
        k(    1) = (   0.0000000   0.0000000   0.0000000), wk =   0.2500000
        k(    2) = (  -0.5000000  -1.0000000   0.0000000), wk =   0.0000000
        k(    3) = (   0.5000000  -0.5000000   0.5000000), wk =   1.0000000
        k(    4) = (   0.0000000  -1.5000000   0.5000000), wk =   0.0000000
        k(    5) = (   0.0000000  -1.0000000   0.0000000), wk =   0.5000000
        k(    6) = (  -0.5000000  -2.0000000   0.0000000), wk =   0.0000000
        k(    7) = (  -1.0000000   0.0000000   0.0000000), wk =   0.2500000
        k(    8) = (  -1.5000000  -1.0000000   0.0000000), wk =   0.0000000

     Dense  grid:    22995 G-vectors     FFT dimensions: (  40,  40,  40)

     Smooth grid:     7991 G-vectors     FFT dimensions: (  27,  27,  27)

     Estimated max dynamical RAM per process >      21.34 MB

     Estimated total dynamical RAM >      85.36 MB

     The potential is recalculated from file :
     ./tmp/_ph0/AlAs.save/charge-density

     Starting wfcs are    8 atomic wfcs
     Checking if some PAW data can be deallocated... 

     Band Structure Calculation
     Davidson diagonalization with overlap

     ethr =  1.25E-10,  avg # of iterations = 10.4

     total cpu time spent up to now is        1.0 secs

     End of band structure calculation

          k = 0.0000 0.0000 0.0000 (   965 PWs)   bands (ev):

    -6.4383   5.7551   5.7551   5.7551

          k =-0.5000-1.0000 0.0000 (  1036 PWs)   bands (ev):

    -4.1407   0.3564   2.2693   2.6210

          k = 0.5000-0.5000 0.5000 (  1008 PWs)   bands (ev):

    -4.8244  -0.2097   4.8587   4.8587

          k = 0.0000-1.5000 0.5000 (  1019 PWs)   bands (ev):

    -4.9309   0.9592   2.6052   4.7681

          k = 0.0000-1.0000 0.0000 (   998 PWs)   bands (ev):

    -4.1837  -0.0210   3.3775   3.3775

          k =-0.5000-2.0000 0.0000 (   998 PWs)   bands (ev):

    -5.5775   2.4517   4.2666   4.2666

          k =-1.0000 0.0000 0.0000 (   998 PWs)   bands (ev):

    -4.1837  -0.0210   3.3775   3.3775

          k =-1.5000-1.0000 0.0000 (  1036 PWs)   bands (ev):

    -4.1407   0.3564   2.2693   2.6210

     highest occupied level (ev):     5.7551

     Writing config to output data dir ./tmp/_ph0/AlAs.save/

     Phonons on a uniform q-grid                                                

     bravais-lattice index     =            2
     lattice parameter (alat)  =      10.5000  a.u.
     unit-cell volume          =     289.4062 (a.u.)^3
     number of atoms/cell      =            2
     number of atomic types    =            2
     kinetic-energy cut-off    =      35.0000  Ry
     charge density cut-off    =     280.0000  Ry
     convergence threshold     =      1.0E-14
     beta                      =       0.7000
     number of iterations used =            4
     Exchange-correlation= PBE
                           (   1   4   3   4   0   0   0)


     celldm(1)=   10.50000  celldm(2)=    0.00000  celldm(3)=    0.00000
     celldm(4)=    0.00000  celldm(5)=    0.00000  celldm(6)=    0.00000

     crystal axes: (cart. coord. in units of alat)
               a(1) = ( -0.5000  0.0000  0.5000 )  
               a(2) = (  0.0000  0.5000  0.5000 )  
               a(3) = ( -0.5000  0.5000  0.0000 )  

     reciprocal axes: (cart. coord. in units 2 pi/alat)
               b(1) = ( -1.0000 -1.0000  1.0000 )  
               b(2) = (  1.0000  1.0000  1.0000 )  
               b(3) = ( -1.0000  1.0000 -1.0000 )  


     Atoms inside the unit cell: 

     Cartesian axes

     site n.  atom      mass           positions (alat units)
        1     Al  26.9800   tau(    1) = (    0.00000    0.00000    0.00000  )
        2     As  74.9200   tau(    2) = (    0.25000    0.25000    0.25000  )

     Computing dynamical matrix for 
                    q = (  -0.5000000  -1.0000000   0.0000000 )

      4 Sym.Ops. (no q -> -q+G )


     G cutoff =  781.9462  (   5749 G-vectors)     FFT grid: ( 40, 40, 40)
     G cutoff =  390.9731  (   1998 G-vectors)  smooth grid: ( 27, 27, 27)
     number of k points=     8

     PseudoPot. # 1 for Al read from file:
     ../pseudo/Al.pbe-n-kjpaw_psl.1.0.0.UPF
     MD5 check sum: cfc449ca30b5f3223ec38ddd88ac046d
     Pseudo is Projector augmented-wave + core cor, Zval =  3.0
     Generated using "atomic" code by A. Dal Corso  v.5.1
     Shape of augmentation charge: PSQ
     Using radial grid of 1135 points,  6 beta functions with: 
                l(1) =   0
                l(2) =   0
                l(3) =   1
                l(4) =   1
                l(5) =   2
                l(6) =   2
     Q(r) pseudized with 0 coefficients 


     PseudoPot. # 2 for As read from file:
     ../pseudo/As.pbe-n-rrkjus_psl.0.2.UPF
     MD5 check sum: 767315de957beeeb34f87d97bf945c8f
     Pseudo is Ultrasoft + core correction, Zval =  5.0
     Generated using "atomic" code by A. Dal Corso  v.5.0.99 svn rev. 10869
     Using radial grid of 1209 points,  4 beta functions with: 
                l(1) =   0
                l(2) =   0
                l(3) =   1
                l(4) =   1
     Q(r) pseudized with 0 coefficients 


     Mode symmetry, S_4 (-4)    point group:


     Atomic displacements:
     There are    6 irreducible representations

     Representation     1      1 modes -  To be done

     Representation     2      1 modes -  To be done

     Representation     3      1 modes -  To be done

     Representation     4      1 modes -  To be done

     Representation     5      1 modes -  To be done

     Representation     6      1 modes -  To be done



     Alpha used in Ewald sum =   2.8000
     PHONON       :     55.35s CPU     56.37s WALL



     Representation #   1 mode #   1

     Self-consistent Calculation

      iter #   1 total cpu time :    56.5 secs   av.it.:   5.2
      thresh= 1.000E-02 alpha_mix =  0.700 |ddv_scf|^2 =  8.144E-06

      iter #   2 total cpu time :    56.7 secs   av.it.:   8.5
      thresh= 2.854E-04 alpha_mix =  0.700 |ddv_scf|^2 =  8.713E-06

      iter #   3 total cpu time :    56.8 secs   av.it.:   8.5
      thresh= 2.952E-04 alpha_mix =  0.700 |ddv_scf|^2 =  2.847E-09

      iter #   4 total cpu time :    57.0 secs   av.it.:   8.8
      thresh= 5.336E-06 alpha_mix =  0.700 |ddv_scf|^2 =  4.943E-11

      iter #   5 total cpu time :    57.2 secs   av.it.:   8.5
      thresh= 7.031E-07 alpha_mix =  0.700 |ddv_scf|^2 =  1.862E-12

      iter #   6 total cpu time :    57.3 secs   av.it.:   8.8
      thresh= 1.365E-07 alpha_mix =  0.700 |ddv_scf|^2 =  3.506E-14

      iter #   7 total cpu time :    57.5 secs   av.it.:   8.8
      thresh= 1.873E-08 alpha_mix =  0.700 |ddv_scf|^2 =  9.405E-15

     End of self-consistent calculation

     Convergence has been achieved 


     Representation #   2 mode #   2

     Self-consistent Calculation

      iter #   1 total cpu time :    57.6 secs   av.it.:   5.2
      thresh= 1.000E-02 alpha_mix =  0.700 |ddv_scf|^2 =  5.046E-06

      iter #   2 total cpu time :    57.8 secs   av.it.:   8.8
      thresh= 2.246E-04 alpha_mix =  0.700 |ddv_scf|^2 =  2.798E-06

      iter #   3 total cpu time :    58.0 secs   av.it.:   8.5
      thresh= 1.673E-04 alpha_mix =  0.700 |ddv_scf|^2 =  4.943E-09

      iter #   4 total cpu time :    58.1 secs   av.it.:   9.0
      thresh= 7.031E-06 alpha_mix =  0.700 |ddv_scf|^2 =  3.435E-11

      iter #   5 total cpu time :    58.3 secs   av.it.:   8.8
      thresh= 5.861E-07 alpha_mix =  0.700 |ddv_scf|^2 =  8.601E-13

      iter #   6 total cpu time :    58.4 secs   av.it.:   8.8
      thresh= 9.274E-08 alpha_mix =  0.700 |ddv_scf|^2 =  8.440E-15

     End of self-consistent calculation

     Convergence has been achieved 


     Representation #   3 mode #   3

     Self-consistent Calculation

      iter #   1 total cpu time :    58.6 secs   av.it.:   4.2
      thresh= 1.000E-02 alpha_mix =  0.700 |ddv_scf|^2 =  6.152E-07

      iter #   2 total cpu time :    58.8 secs   av.it.:   8.8
      thresh= 7.844E-05 alpha_mix =  0.700 |ddv_scf|^2 =  3.748E-07

      iter #   3 total cpu time :    58.9 secs   av.it.:   8.5
      thresh= 6.122E-05 alpha_mix =  0.700 |ddv_scf|^2 =  1.011E-09

      iter #   4 total cpu time :    59.1 secs   av.it.:   8.2
      thresh= 3.179E-06 alpha_mix =  0.700 |ddv_scf|^2 =  2.687E-11

      iter #   5 total cpu time :    59.2 secs   av.it.:   7.8
      thresh= 5.183E-07 alpha_mix =  0.700 |ddv_scf|^2 =  2.992E-13

      iter #   6 total cpu time :    59.4 secs   av.it.:   8.2
      thresh= 5.470E-08 alpha_mix =  0.700 |ddv_scf|^2 =  6.112E-16

     End of self-consistent calculation

     Convergence has been achieved 


     Representation #   4 mode #   4

     Self-consistent Calculation

      iter #   1 total cpu time :    59.5 secs   av.it.:   5.2
      thresh= 1.000E-02 alpha_mix =  0.700 |ddv_scf|^2 =  2.674E-06

      iter #   2 total cpu time :    59.7 secs   av.it.:   8.5
      thresh= 1.635E-04 alpha_mix =  0.700 |ddv_scf|^2 =  9.804E-07

      iter #   3 total cpu time :    59.9 secs   av.it.:   8.8
      thresh= 9.902E-05 alpha_mix =  0.700 |ddv_scf|^2 =  2.909E-09

      iter #   4 total cpu time :    60.0 secs   av.it.:   9.2
      thresh= 5.394E-06 alpha_mix =  0.700 |ddv_scf|^2 =  5.754E-11

      iter #   5 total cpu time :    60.2 secs   av.it.:   9.0
      thresh= 7.585E-07 alpha_mix =  0.700 |ddv_scf|^2 =  1.046E-12

      iter #   6 total cpu time :    60.3 secs   av.it.:   8.8
      thresh= 1.023E-07 alpha_mix =  0.700 |ddv_scf|^2 =  1.570E-14

      iter #   7 total cpu time :    60.5 secs   av.it.:   8.5
      thresh= 1.253E-08 alpha_mix =  0.700 |ddv_scf|^2 =  6.492E-16

     End of self-consistent calculation

     Convergence has been achieved 


     Representation #   5 mode #   5

     Self-consistent Calculation

      iter #   1 total cpu time :    60.6 secs   av.it.:   4.2
      thresh= 1.000E-02 alpha_mix =  0.700 |ddv_scf|^2 =  7.060E-07

      iter #   2 total cpu time :    60.8 secs   av.it.:   9.2
      thresh= 8.402E-05 alpha_mix =  0.700 |ddv_scf|^2 =  2.771E-07

      iter #   3 total cpu time :    61.0 secs   av.it.:   8.8
      thresh= 5.264E-05 alpha_mix =  0.700 |ddv_scf|^2 =  1.074E-09

      iter #   4 total cpu time :    61.1 secs   av.it.:   8.2
      thresh= 3.278E-06 alpha_mix =  0.700 |ddv_scf|^2 =  2.552E-11

      iter #   5 total cpu time :    61.3 secs   av.it.:   8.0
      thresh= 5.052E-07 alpha_mix =  0.700 |ddv_scf|^2 =  4.017E-13

      iter #   6 total cpu time :    61.4 secs   av.it.:   8.2
      thresh= 6.338E-08 alpha_mix =  0.700 |ddv_scf|^2 =  1.372E-15

     End of self-consistent calculation

     Convergence has been achieved 


     Representation #   6 mode #   6

     Self-consistent Calculation

      iter #   1 total cpu time :    61.6 secs   av.it.:   4.8
      thresh= 1.000E-02 alpha_mix =  0.700 |ddv_scf|^2 =  1.417E-06

      iter #   2 total cpu time :    61.8 secs   av.it.:   9.0
      thresh= 1.190E-04 alpha_mix =  0.700 |ddv_scf|^2 =  1.469E-06

      iter #   3 total cpu time :    61.9 secs   av.it.:   8.8
      thresh= 1.212E-04 alpha_mix =  0.700 |ddv_scf|^2 =  1.301E-09

      iter #   4 total cpu time :    62.1 secs   av.it.:   8.5
      thresh= 3.608E-06 alpha_mix =  0.700 |ddv_scf|^2 =  4.493E-11

      iter #   5 total cpu time :    62.2 secs   av.it.:   8.8
      thresh= 6.703E-07 alpha_mix =  0.700 |ddv_scf|^2 =  1.479E-12

      iter #   6 total cpu time :    62.4 secs   av.it.:   8.5
      thresh= 1.216E-07 alpha_mix =  0.700 |ddv_scf|^2 =  8.708E-16

     End of self-consistent calculation

     Convergence has been achieved 

     Number of q in the star =    6
     List of q in the star:
          1  -0.500000000  -1.000000000   0.000000000
          2   0.000000000   1.000000000  -0.500000000
          3   0.000000000   1.000000000   0.500000000
          4   0.500000000   1.000000000   0.000000000
          5   0.000000000  -0.500000000  -1.000000000
          6   0.000000000   0.500000000  -1.000000000

     Diagonalizing the dynamical matrix

     q = (   -0.500000000  -1.000000000   0.000000000 ) 

 **************************************************************************
     freq (    1) =       5.243304 [THz] =     174.897788 [cm-1]
     freq (    2) =       5.306710 [THz] =     177.012784 [cm-1]
     freq (    3) =       6.528228 [THz] =     217.758253 [cm-1]
     freq (    4) =      10.669234 [THz] =     355.887349 [cm-1]
     freq (    5) =      10.785336 [THz] =     359.760078 [cm-1]
     freq (    6) =      11.153530 [THz] =     372.041707 [cm-1]
 **************************************************************************

     Mode symmetry, S_4 (-4)    point group:

     freq (   1-   1) =        174.9  [cm-1]   --> B    W_3           
     freq (   2-   2) =        177.0  [cm-1]   --> E    W_4           
     freq (   3-   3) =        217.8  [cm-1]   --> A    W_1           
     freq (   4-   4) =        355.9  [cm-1]   --> E*   W_2           
     freq (   5-   5) =        359.8  [cm-1]   --> B    W_3           
     freq (   6-   6) =        372.0  [cm-1]   --> E    W_4           

     init_run     :      0.69s CPU      0.69s WALL (       7 calls)
     electrons    :      0.25s CPU      0.25s WALL (       7 calls)

     Called by init_run:
     wfcinit      :      0.00s CPU      0.00s WALL (       7 calls)
     potinit      :      0.21s CPU      0.21s WALL (       7 calls)
     hinit0       :      0.34s CPU      0.34s WALL (       7 calls)

     Called by electrons:
     c_bands      :      0.25s CPU      0.25s WALL (       7 calls)
     v_of_rho     :      0.02s CPU      0.02s WALL (       8 calls)
     newd         :      0.07s CPU      0.08s WALL (       8 calls)
     PAW_pot      :      0.22s CPU      0.22s WALL (       8 calls)

     Called by c_bands:
     init_us_2    :      0.05s CPU      0.06s WALL (    2012 calls)
     init_us_2:cp :      0.05s CPU      0.06s WALL (    2012 calls)
     cegterg      :      0.20s CPU      0.21s WALL (      66 calls)

     Called by *egterg:
     cdiaghg      :      0.01s CPU      0.01s WALL (     761 calls)
     h_psi        :      4.08s CPU      4.25s WALL (   18530 calls)
     s_psi        :      0.22s CPU      0.23s WALL (   37920 calls)
     g_psi        :      0.00s CPU      0.00s WALL (     695 calls)

     Called by h_psi:
     h_psi:calbec :      0.18s CPU      0.19s WALL (   18530 calls)
     vloc_psi     :      3.75s CPU      3.91s WALL (   18530 calls)
     add_vuspsi   :      0.11s CPU      0.11s WALL (   18530 calls)

     General routines
     calbec       :      0.40s CPU      0.41s WALL (   42043 calls)
     fft          :      0.77s CPU      0.79s WALL (    7099 calls)
     ffts         :      0.08s CPU      0.09s WALL (    1312 calls)
     fftw         :      3.88s CPU      4.06s WALL (  161204 calls)
     interpolate  :      0.13s CPU      0.15s WALL (     802 calls)
     davcio       :      0.12s CPU      0.16s WALL (   11730 calls)

     Parallel routines

     PHONON       :   1m 1.33s CPU   1m 2.41s WALL

     INITIALIZATION: 
     phq_setup    :      0.10s CPU      0.10s WALL (       8 calls)
     phq_init     :      1.80s CPU      1.81s WALL (       8 calls)

     phq_init     :      1.80s CPU      1.81s WALL (       8 calls)
     set_drhoc    :      0.86s CPU      0.86s WALL (      24 calls)
     init_vloc    :      0.01s CPU      0.01s WALL (       8 calls)
     init_us_1    :      0.34s CPU      0.34s WALL (       8 calls)
     init_us_2    :      0.05s CPU      0.06s WALL (    2012 calls)
     newd         :      0.07s CPU      0.08s WALL (       8 calls)
     dvanqq       :      0.32s CPU      0.32s WALL (       8 calls)
     drho         :      0.43s CPU      0.44s WALL (       8 calls)
     drhous       :      0.03s CPU      0.04s WALL (       8 calls)
     nldyntot     :      0.00s CPU      0.00s WALL (       8 calls)

     DYNAMICAL MATRIX:
     dynmat0      :      0.62s CPU      0.62s WALL (       8 calls)
     dynmat_us    :      0.01s CPU      0.01s WALL (       8 calls)
     addusdynmat  :      0.00s CPU      0.00s WALL (       8 calls)
     d2ionq       :      0.00s CPU      0.00s WALL (       8 calls)
     dynmatcc     :      0.60s CPU      0.60s WALL (       8 calls)
     phqscf       :     54.88s CPU     55.88s WALL (       8 calls)
     dynmatrix    :      0.00s CPU      0.00s WALL (       8 calls)

     phqscf       :     54.88s CPU     55.88s WALL (       8 calls)
     solve_linter :     54.83s CPU     55.82s WALL (      38 calls)
     sth_kernel   :      5.38s CPU      5.63s WALL (     295 calls)
     h_prec       :      0.04s CPU      0.05s WALL (    1424 calls)
     apply_dpot_b :      0.30s CPU      0.33s WALL (    1444 calls)
     ortho        :      0.04s CPU      0.04s WALL (    1678 calls)
     cgsolve      :      4.59s CPU      4.78s WALL (    1678 calls)
     incdrhoscf   :      0.38s CPU      0.39s WALL (    1678 calls)
                                        0.00s GPU  (    1678 calls)
     addusddens   :      2.98s CPU      3.00s WALL (     326 calls)
     dv_of_drho   :      0.44s CPU      0.45s WALL (     371 calls)
     mix_pot      :      0.12s CPU      0.17s WALL (     295 calls)
     drhodv       :      0.03s CPU      0.03s WALL (      38 calls)
     psymdvscf    :      1.43s CPU      1.44s WALL (     288 calls)
     newdq        :      3.47s CPU      3.48s WALL (     295 calls)
     adddvscf     :      0.01s CPU      0.01s WALL (    1444 calls)
     drhodvus     :      0.00s CPU      0.01s WALL (      38 calls)

     dvqpsi_us    :      0.07s CPU      0.08s WALL (     234 calls)
                                        0.00s GPU  (     234 calls)
     dvqpsi_us_on :      0.01s CPU      0.01s WALL (     234 calls)

     add_vuspsi   :      0.11s CPU      0.11s WALL (   18530 calls)
     addusdbec    :      0.02s CPU      0.02s WALL (    1894 calls)

     drhodvus     :      0.00s CPU      0.01s WALL (      38 calls)

      General routines
     calbec       :      0.40s CPU      0.41s WALL (   42043 calls)
     fft          :      0.77s CPU      0.79s WALL (    7099 calls)
     ffts         :      0.08s CPU      0.09s WALL (    1312 calls)
     fftw         :      3.88s CPU      4.06s WALL (  161204 calls)
     davcio       :      0.12s CPU      0.16s WALL (   11730 calls)
     write_rec    :      0.07s CPU      0.61s WALL (     333 calls)

      Additional routines
     ch_psi       :      4.43s CPU      4.62s WALL (   17703 calls)
     last         :      0.41s CPU      0.42s WALL (   17703 calls)
     Hesh         :      0.01s CPU      0.01s WALL (   17703 calls)
     ch_psi_all_k :      0.38s CPU      0.40s WALL (   17703 calls)
                                        0.00s GPU  (   17703 calls)
     ch_psi_calbe :      0.17s CPU      0.18s WALL (   17703 calls)
                                        0.00s GPU  (   17703 calls)
     h_psi_bgrp   :      4.08s CPU      4.26s WALL (   18530 calls)
     h_psi        :      4.08s CPU      4.25s WALL (   18530 calls)
     h_psi:pot    :      4.06s CPU      4.23s WALL (   18530 calls)
     h_psi:calbec :      0.18s CPU      0.19s WALL (   18530 calls)
     s_psi_bgrp   :      0.25s CPU      0.26s WALL (   37920 calls)
     s_psi        :      0.22s CPU      0.23s WALL (   37920 calls)


     PHONON       :   1m 1.33s CPU   1m 2.41s WALL


   This run was terminated on:  18:58:17  21May2025            

=------------------------------------------------------------------------------=
   JOB DONE.
=------------------------------------------------------------------------------=
