
     Program PWSCF v.7.2 starts on 21May2025 at 18:55:34 

     This program is part of the open-source Quantum ESPRESSO suite
     for quantum simulation of materials; please cite
         "P. Giannozzi et al., J. Phys.:Condens. Matter 21 395502 (2009);
         "P. Giannozzi et al., J. Phys.:Condens. Matter 29 465901 (2017);
         "P. Giannozzi et al., J. Chem. Phys. 152 154105 (2020);
          URL http://www.quantum-espresso.org", 
     in publications or presentations arising from this work. More details at
     http://www.quantum-espresso.org/quote

     Parallel version (MPI & OpenMP), running on       4 processor cores
     Number of MPI processes:                 4
     Threads/MPI process:                     1

     MPI processes distributed on     1 nodes
     50622 MiB available memory on the printing compute node when the environment starts

     Reading input from AlAs.scf.in
     Message from routine read_cards :
     DEPRECATED: no units specified in ATOMIC_POSITIONS card
     Message from routine read_cards :
     ATOMIC_POSITIONS: units set to alat

     Current dimensions of program PWSCF are:
     Max number of different atomic species (ntypx) = 10
     Max number of k-points (npk) =  40000
     Max angular momentum in pseudopotentials (lmaxx) =  4
     file Al.pbe-n-kjpaw_psl.1.0.0.UPF: wavefunction(s)  3S 3P renormalized

     R & G space division:  proc/nbgrp/npool/nimage =       4
     Subspace diagonalization in iterative solution of the eigenvalue problem:
     a serial algorithm will be used


     Parallelization info
     --------------------
     sticks:   dense  smooth     PW     G-vecs:    dense   smooth      PW
     Min         267     129     40                 5748     1997     340
     Max         268     130     41                 5750     1999     342
     Sum        1069     517    163                22995     7991    1363

     Using Slab Decomposition



     bravais-lattice index     =            2
     lattice parameter (alat)  =      10.5000  a.u.
     unit-cell volume          =     289.4062 (a.u.)^3
     number of atoms/cell      =            2
     number of atomic types    =            2
     number of electrons       =         8.00
     number of Kohn-Sham states=            4
     kinetic-energy cutoff     =      35.0000  Ry
     charge density cutoff     =     280.0000  Ry
     scf convergence threshold =      1.0E-10
     mixing beta               =       0.7000
     number of iterations used =            8  plain     mixing
     Exchange-correlation= PBE
                           (   1   4   3   4   0   0   0)

     celldm(1)=  10.500000  celldm(2)=   0.000000  celldm(3)=   0.000000
     celldm(4)=   0.000000  celldm(5)=   0.000000  celldm(6)=   0.000000

     crystal axes: (cart. coord. in units of alat)
               a(1) = (  -0.500000   0.000000   0.500000 )  
               a(2) = (   0.000000   0.500000   0.500000 )  
               a(3) = (  -0.500000   0.500000   0.000000 )  

     reciprocal axes: (cart. coord. in units 2 pi/alat)
               b(1) = ( -1.000000 -1.000000  1.000000 )  
               b(2) = (  1.000000  1.000000  1.000000 )  
               b(3) = ( -1.000000  1.000000 -1.000000 )  


     PseudoPot. # 1 for Al read from file:
     ../pseudo/Al.pbe-n-kjpaw_psl.1.0.0.UPF
     MD5 check sum: cfc449ca30b5f3223ec38ddd88ac046d
     Pseudo is Projector augmented-wave + core cor, Zval =  3.0
     Generated using "atomic" code by A. Dal Corso  v.5.1
     Shape of augmentation charge: PSQ
     Using radial grid of 1135 points,  6 beta functions with: 
                l(1) =   0
                l(2) =   0
                l(3) =   1
                l(4) =   1
                l(5) =   2
                l(6) =   2
     Q(r) pseudized with 0 coefficients 


     PseudoPot. # 2 for As read from file:
     ../pseudo/As.pbe-n-rrkjus_psl.0.2.UPF
     MD5 check sum: 767315de957beeeb34f87d97bf945c8f
     Pseudo is Ultrasoft + core correction, Zval =  5.0
     Generated using "atomic" code by A. Dal Corso  v.5.0.99 svn rev. 10869
     Using radial grid of 1209 points,  4 beta functions with: 
                l(1) =   0
                l(2) =   0
                l(3) =   1
                l(4) =   1
     Q(r) pseudized with 0 coefficients 


     atomic species   valence    mass     pseudopotential
        Al             3.00    26.98000     Al( 1.00)
        As             5.00    74.92000     As( 1.00)

     24 Sym. Ops. (no inversion) found



   Cartesian axes

     site n.     atom                  positions (alat units)
         1           Al  tau(   1) = (   0.0000000   0.0000000   0.0000000  )
         2           As  tau(   2) = (   0.2500000   0.2500000   0.2500000  )

     number of k points=     3
                       cart. coord. in units 2pi/alat
        k(    1) = (   0.0000000   0.0000000   0.0000000), wk =   0.2500000
        k(    2) = (   0.5000000  -0.5000000   0.5000000), wk =   1.0000000
        k(    3) = (   0.0000000  -1.0000000   0.0000000), wk =   0.7500000

     Dense  grid:    22995 G-vectors     FFT dimensions: (  40,  40,  40)

     Smooth grid:     7991 G-vectors     FFT dimensions: (  27,  27,  27)

     Estimated max dynamical RAM per process >      22.89 MB

     Estimated total dynamical RAM >      91.56 MB

     Initial potential from superposition of free atoms

     starting charge       7.9975, renormalised to       8.0000
     Starting wfcs are    8 randomized atomic wfcs
     Checking if some PAW data can be deallocated... 

     total cpu time spent up to now is        0.4 secs

     Self-consistent Calculation

     iteration #  1     ecut=    35.00 Ry     beta= 0.70
     Davidson diagonalization with overlap
     ethr =  1.00E-02,  avg # of iterations =  1.7

     total cpu time spent up to now is        0.4 secs

     total energy              =     -57.58597081 Ry
     estimated scf accuracy    <       0.11989763 Ry

     iteration #  2     ecut=    35.00 Ry     beta= 0.70
     Davidson diagonalization with overlap
     ethr =  1.50E-03,  avg # of iterations =  2.0

     total cpu time spent up to now is        0.5 secs

     total energy              =     -57.61207430 Ry
     estimated scf accuracy    <       0.00928857 Ry

     iteration #  3     ecut=    35.00 Ry     beta= 0.70
     Davidson diagonalization with overlap
     ethr =  1.16E-04,  avg # of iterations =  2.3

     total cpu time spent up to now is        0.5 secs

     total energy              =     -57.61312033 Ry
     estimated scf accuracy    <       0.00089939 Ry

     iteration #  4     ecut=    35.00 Ry     beta= 0.70
     Davidson diagonalization with overlap
     ethr =  1.12E-05,  avg # of iterations =  2.3

     total cpu time spent up to now is        0.6 secs

     total energy              =     -57.61342659 Ry
     estimated scf accuracy    <       0.00025107 Ry

     iteration #  5     ecut=    35.00 Ry     beta= 0.70
     Davidson diagonalization with overlap
     ethr =  3.14E-06,  avg # of iterations =  2.7

     total cpu time spent up to now is        0.7 secs

     total energy              =     -57.61342274 Ry
     estimated scf accuracy    <       0.00004471 Ry

     iteration #  6     ecut=    35.00 Ry     beta= 0.70
     Davidson diagonalization with overlap
     ethr =  5.59E-07,  avg # of iterations =  3.3

     total cpu time spent up to now is        0.7 secs

     total energy              =     -57.61344560 Ry
     estimated scf accuracy    <       0.00002912 Ry

     iteration #  7     ecut=    35.00 Ry     beta= 0.70
     Davidson diagonalization with overlap
     ethr =  3.64E-07,  avg # of iterations =  1.3

     total cpu time spent up to now is        0.8 secs

     total energy              =     -57.61344599 Ry
     estimated scf accuracy    <       0.00000373 Ry

     iteration #  8     ecut=    35.00 Ry     beta= 0.70
     Davidson diagonalization with overlap
     ethr =  4.66E-08,  avg # of iterations =  2.0

     total cpu time spent up to now is        0.8 secs

     total energy              =     -57.61344712 Ry
     estimated scf accuracy    <          4.0E-09 Ry

     iteration #  9     ecut=    35.00 Ry     beta= 0.70
     Davidson diagonalization with overlap
     ethr =  4.99E-11,  avg # of iterations =  8.7

     total cpu time spent up to now is        0.9 secs

     total energy              =     -57.61344723 Ry
     estimated scf accuracy    <       0.00000032 Ry

     iteration # 10     ecut=    35.00 Ry     beta= 0.70
     Davidson diagonalization with overlap
     ethr =  4.99E-11,  avg # of iterations =  3.3

     total cpu time spent up to now is        0.9 secs

     total energy              =     -57.61344710 Ry
     estimated scf accuracy    <       0.00000018 Ry

     iteration # 11     ecut=    35.00 Ry     beta= 0.70
     Davidson diagonalization with overlap
     ethr =  4.99E-11,  avg # of iterations =  6.3

     total cpu time spent up to now is        1.0 secs

     total energy              =     -57.61344716 Ry
     estimated scf accuracy    <       0.00000006 Ry

     iteration # 12     ecut=    35.00 Ry     beta= 0.70
     Davidson diagonalization with overlap
     ethr =  4.99E-11,  avg # of iterations =  4.3

     total cpu time spent up to now is        1.0 secs

     total energy              =     -57.61344717 Ry
     estimated scf accuracy    <          2.6E-10 Ry

     iteration # 13     ecut=    35.00 Ry     beta= 0.70
     Davidson diagonalization with overlap
     ethr =  3.20E-12,  avg # of iterations =  2.7

     total cpu time spent up to now is        1.1 secs

     total energy              =     -57.61344717 Ry
     estimated scf accuracy    <          4.0E-10 Ry

     iteration # 14     ecut=    35.00 Ry     beta= 0.70
     Davidson diagonalization with overlap
     ethr =  3.20E-12,  avg # of iterations =  2.0

     total cpu time spent up to now is        1.1 secs

     End of self-consistent calculation

          k = 0.0000 0.0000 0.0000 (   965 PWs)   bands (ev):

    -6.4383   5.7551   5.7551   5.7551

          k = 0.5000-0.5000 0.5000 (  1008 PWs)   bands (ev):

    -4.8244  -0.2097   4.8587   4.8587

          k = 0.0000-1.0000 0.0000 (   998 PWs)   bands (ev):

    -4.1837  -0.0210   3.3775   3.3775

     highest occupied level (ev):     5.7551

!    total energy              =     -57.61344717 Ry
     estimated scf accuracy    <          2.1E-11 Ry

     The total energy is the sum of the following terms:
     one-electron contribution =       4.44404752 Ry
     hartree contribution      =       1.73562186 Ry
     xc contribution           =     -11.97466422 Ry
     ewald contribution        =     -17.13746568 Ry
     one-center paw contrib.   =     -34.68098665 Ry

     convergence has been achieved in  14 iterations

     Writing all to output data dir ./tmp/AlAs.save/

     init_run     :      0.32s CPU      0.33s WALL (       1 calls)
     electrons    :      0.74s CPU      0.75s WALL (       1 calls)

     Called by init_run:
     wfcinit      :      0.00s CPU      0.00s WALL (       1 calls)
     potinit      :      0.07s CPU      0.08s WALL (       1 calls)
     hinit0       :      0.23s CPU      0.23s WALL (       1 calls)

     Called by electrons:
     c_bands      :      0.05s CPU      0.05s WALL (      14 calls)
     sum_band     :      0.15s CPU      0.15s WALL (      14 calls)
     v_of_rho     :      0.03s CPU      0.03s WALL (      15 calls)
     newd         :      0.13s CPU      0.14s WALL (      15 calls)
     PAW_pot      :      0.41s CPU      0.41s WALL (      15 calls)
     mix_rho      :      0.00s CPU      0.00s WALL (      14 calls)

     Called by c_bands:
     init_us_2    :      0.00s CPU      0.00s WALL (      87 calls)
     init_us_2:cp :      0.00s CPU      0.00s WALL (      87 calls)
     cegterg      :      0.04s CPU      0.04s WALL (      42 calls)

     Called by *egterg:
     cdiaghg      :      0.00s CPU      0.00s WALL (     177 calls)
     h_psi        :      0.04s CPU      0.04s WALL (     180 calls)
     s_psi        :      0.00s CPU      0.00s WALL (     180 calls)
     g_psi        :      0.00s CPU      0.00s WALL (     135 calls)

     Called by h_psi:
     h_psi:calbec :      0.00s CPU      0.00s WALL (     180 calls)
     vloc_psi     :      0.04s CPU      0.04s WALL (     180 calls)
     add_vuspsi   :      0.00s CPU      0.00s WALL (     180 calls)

     General routines
     calbec       :      0.00s CPU      0.00s WALL (     222 calls)
     fft          :      0.19s CPU      0.19s WALL (     193 calls)
     ffts         :      0.04s CPU      0.04s WALL (      29 calls)
     fftw         :      0.03s CPU      0.03s WALL (    1394 calls)
     interpolate  :      0.04s CPU      0.04s WALL (      15 calls)

     Parallel routines

     PWSCF        :      1.13s CPU      1.20s WALL


   This run was terminated on:  18:55:35  21May2025            

=------------------------------------------------------------------------------=
   JOB DONE.
=------------------------------------------------------------------------------=
