
     Program Q2R v.7.4 starts on 11Jun2025 at 12:29:17 

     This program is part of the open-source Quantum ESPRESSO suite
     for quantum simulation of materials; please cite
         "P. Giannozzi et al., J. Phys.:Condens. Matter 21 395502 (2009);
         "P. Giannozzi et al., J. Phys.:Condens. Matter 29 465901 (2017);
         "P. Giannozzi et al., J. Chem. Phys. 152 154105 (2020);
          URL http://www.quantum-espresso.org", 
     in publications or presentations arising from this work. More details at
     http://www.quantum-espresso.org/quote

     Parallel version (MPI), running on     4 processors

     MPI processes distributed on     1 nodes
     R & G space division:  proc/nbgrp/npool/nimage =       4
     6870 MiB available memory on the printing compute node when the environment starts


  reading grid info from file Si.dyn0    

  reading force constants from file Si.dyn1
 macroscopic fields = T
  25.40193  -5.72164  -5.14512
  -5.72164  25.40193   5.14512
  -5.14512   5.14512  22.02930
  na=            1
  -0.05647  -0.02303   0.01792
  -0.02303  -0.05647  -0.01792
   0.01739  -0.01739  -0.07802
  na=            2
  -0.05648  -0.02303   0.01792
  -0.02303  -0.05648  -0.01792
   0.01739  -0.01739  -0.07803
  alpha Ewald:    2.6677590602916013     
  nqs=            1
 q=   0.00000000  0.00000000  0.00000000
  reading force constants from file Si.dyn2
  alpha Ewald:    2.6677590602916013     
  nqs=            1
 q=   0.50000000 -0.50000000  0.50000000
  reading force constants from file Si.dyn3
  alpha Ewald:    2.6677590602916013     
  nqs=            2
 q=  -0.50000000 -0.50000000 -0.50000000
 q=   0.50000000  0.50000000 -0.50000000
  reading force constants from file Si.dyn4
  alpha Ewald:    2.6677590602916013     
  nqs=            2
 q=   0.00000000 -1.00000000  0.00000000
 q=   1.00000000  0.00000000  0.00000000
  reading force constants from file Si.dyn5
  alpha Ewald:    2.6677590602916013     
  nqs=            1
 q=   0.00000000  0.00000000 -1.00000000
  reading force constants from file Si.dyn6
  alpha Ewald:    2.6677590602916013     
  nqs=            1
 q=   0.50000000 -0.50000000 -0.50000000

      q-space grid ok, #points =    8

      fft-check success (sum of imaginary terms < 10^-12)

     Q2R          :      0.02s CPU      0.03s WALL


   This run was terminated on:  12:29:17  11Jun2025            

=------------------------------------------------------------------------------=
   JOB DONE.
=------------------------------------------------------------------------------=
