
     Program PWSCF v.7.4 starts on 11Jun2025 at 12: 2:14 

     This program is part of the open-source Quantum ESPRESSO suite
     for quantum simulation of materials; please cite
         "P. Giannozzi et al., J. Phys.:Condens. Matter 21 395502 (2009);
         "P. Giannozzi et al., J. Phys.:Condens. Matter 29 465901 (2017);
         "P. Giannozzi et al., J. Chem. Phys. 152 154105 (2020);
          URL http://www.quantum-espresso.org", 
     in publications or presentations arising from this work. More details at
     http://www.quantum-espresso.org/quote

     Parallel version (MPI), running on     4 processors

     MPI processes distributed on     1 nodes
     6982 MiB available memory on the printing compute node when the environment starts

     Waiting for input...
     Reading input from standard input
     Message from routine read_cards :
     DEPRECATED: no units specified in ATOMIC_POSITIONS card
     Message from routine read_cards :
     ATOMIC_POSITIONS: units set to alat

     Current dimensions of program PWSCF are:
     Max number of different atomic species (ntypx) = 10
     Max number of k-points (npk) =  40000
     Max angular momentum in pseudopotentials (lmaxx) =  4
     Message from routine setup:
     no reason to have ecutrho>4*ecutwfc

     R & G space division:  proc/nbgrp/npool/nimage =       4
     Subspace diagonalization in iterative solution of the eigenvalue problem:
     a serial algorithm will be used


     Parallelization info
     --------------------
     sticks:   dense  smooth     PW     G-vecs:    dense   smooth      PW
     Min         646     214     63                21958     4221     684
     Max         647     215     64                21962     4224     688
     Sum        2587     859    253                87843    16889    2741

     Using Slab Decomposition



     bravais-lattice index     =            2
     lattice parameter (alat)  =      10.2625  a.u.
     unit-cell volume          =     270.2088 (a.u.)^3
     number of atoms/cell      =            2
     number of atomic types    =            1
     number of electrons       =         8.00
     number of Kohn-Sham states=            4
     kinetic-energy cutoff     =      60.0000  Ry
     charge density cutoff     =     720.0000  Ry
     scf convergence threshold =      1.0E-10
     mixing beta               =       0.7000
     number of iterations used =            8  plain     mixing
     Exchange-correlation= SLA  PW   PBE  PBE
                           (   1   4   3   4   0   0   0)

     celldm(1)=  10.262500  celldm(2)=   0.000000  celldm(3)=   0.000000
     celldm(4)=   0.000000  celldm(5)=   0.000000  celldm(6)=   0.000000

     crystal axes: (cart. coord. in units of alat)
               a(1) = (  -0.500000   0.000000   0.500000 )  
               a(2) = (   0.000000   0.500000   0.500000 )  
               a(3) = (  -0.500000   0.500000   0.000000 )  

     reciprocal axes: (cart. coord. in units 2 pi/alat)
               b(1) = ( -1.000000 -1.000000  1.000000 )  
               b(2) = (  1.000000  1.000000  1.000000 )  
               b(3) = ( -1.000000  1.000000 -1.000000 )  


     PseudoPot. # 1 for Si read from file:
     ../pseudo/Si.pbe-rrkj.UPF
     MD5 check sum: c5f788e1e261afac4ba18be32da5cf3b
     Pseudo is Norm-conserving, Zval =  4.0
     Generated by new atomic code, or converted to UPF format
     Using radial grid of  883 points,  3 beta functions with: 
                l(1) =   0
                l(2) =   0
                l(3) =   1

     atomic species   valence    mass     pseudopotential
     Si                4.00    28.08550     Si( 1.00)

      2 Sym. Ops. (no inversion) found



   Cartesian axes

     site n.     atom                  positions (alat units)
         1        Si     tau(   1) = (   0.0000000   0.0000000   0.0000000  )
         2        Si     tau(   2) = (   0.3000000   0.2000000   0.2600000  )

     number of k points=    72
                       cart. coord. in units 2pi/alat
        k(    1) = (  -0.1250000   0.1250000   0.1250000), wk =   0.0156250
        k(    2) = (  -0.3750000   0.3750000  -0.1250000), wk =   0.0156250
        k(    3) = (   0.3750000  -0.3750000   0.6250000), wk =   0.0156250
        k(    4) = (   0.1250000  -0.1250000   0.3750000), wk =   0.0156250
        k(    5) = (  -0.1250000   0.6250000   0.1250000), wk =   0.0312500
        k(    6) = (   0.6250000  -0.1250000   0.8750000), wk =   0.0312500
        k(    7) = (   0.3750000   0.1250000   0.6250000), wk =   0.0312500
        k(    8) = (  -0.1250000  -0.8750000   0.1250000), wk =   0.0312500
        k(    9) = (  -0.3750000   0.3750000   0.3750000), wk =   0.0156250
        k(   10) = (   0.3750000  -0.3750000   1.1250000), wk =   0.0156250
        k(   11) = (   0.1250000   0.1250000  -0.1250000), wk =   0.0312500
        k(   12) = (  -0.1250000   0.1250000  -0.1250000), wk =   0.0156250
        k(   13) = (   0.3750000   0.3750000   0.1250000), wk =   0.0312500
        k(   14) = (  -0.3750000   0.3750000   0.1250000), wk =   0.0156250
        k(   15) = (  -0.1250000  -0.3750000  -0.3750000), wk =   0.0312500
        k(   16) = (   0.1250000  -0.3750000   0.3750000), wk =   0.0312500
        k(   17) = (  -0.1250000   0.3750000   0.3750000), wk =   0.0312500
        k(   18) = (   0.1250000   0.3750000  -0.3750000), wk =   0.0312500
        k(   19) = (  -0.3750000  -0.3750000  -0.6250000), wk =   0.0312500
        k(   20) = (   0.3750000  -0.3750000  -0.6250000), wk =   0.0156250
        k(   21) = (   0.6250000   0.3750000   0.3750000), wk =   0.0312500
        k(   22) = (  -0.6250000   0.3750000  -0.3750000), wk =   0.0312500
        k(   23) = (   0.6250000  -0.3750000  -0.3750000), wk =   0.0312500
        k(   24) = (  -0.6250000  -0.3750000   0.3750000), wk =   0.0312500
        k(   25) = (  -0.1250000  -0.1250000  -0.3750000), wk =   0.0312500
        k(   26) = (   0.1250000  -0.1250000  -0.3750000), wk =   0.0156250
        k(   27) = (   0.3750000   0.1250000   0.1250000), wk =   0.0312500
        k(   28) = (  -0.3750000   0.1250000  -0.1250000), wk =   0.0312500
        k(   29) = (   0.3750000  -0.1250000  -0.1250000), wk =   0.0312500
        k(   30) = (  -0.3750000  -0.1250000   0.1250000), wk =   0.0312500
        k(   31) = (   0.1250000   0.6250000  -0.1250000), wk =   0.0312500
        k(   32) = (  -0.1250000  -0.6250000  -0.1250000), wk =   0.0312500
        k(   33) = (  -0.6250000   0.1250000  -0.1250000), wk =   0.0312500
        k(   34) = (   0.1250000   0.1250000   0.6250000), wk =   0.0312500
        k(   35) = (   0.1250000  -0.1250000  -0.6250000), wk =   0.0156250
        k(   36) = (  -0.1250000   0.1250000  -0.6250000), wk =   0.0156250
        k(   37) = (  -0.6250000  -0.1250000  -0.8750000), wk =   0.0312500
        k(   38) = (   0.6250000   0.1250000  -0.8750000), wk =   0.0312500
        k(   39) = (   0.1250000  -0.6250000  -0.8750000), wk =   0.0312500
        k(   40) = (   0.8750000   0.1250000   0.6250000), wk =   0.0312500
        k(   41) = (  -0.8750000   0.1250000  -0.6250000), wk =   0.0312500
        k(   42) = (   0.8750000  -0.1250000  -0.6250000), wk =   0.0312500
        k(   43) = (  -0.8750000  -0.1250000   0.6250000), wk =   0.0312500
        k(   44) = (  -0.6250000   0.8750000  -0.1250000), wk =   0.0312500
        k(   45) = (  -0.6250000  -0.8750000   0.1250000), wk =   0.0312500
        k(   46) = (   0.6250000   0.8750000   0.1250000), wk =   0.0312500
        k(   47) = (   0.6250000  -0.8750000  -0.1250000), wk =   0.0312500
        k(   48) = (  -0.3750000   0.1250000  -0.6250000), wk =   0.0312500
        k(   49) = (   0.3750000  -0.1250000  -0.6250000), wk =   0.0312500
        k(   50) = (  -0.1250000  -0.3750000  -0.6250000), wk =   0.0312500
        k(   51) = (   0.6250000  -0.1250000   0.3750000), wk =   0.0312500
        k(   52) = (  -0.6250000  -0.1250000  -0.3750000), wk =   0.0312500
        k(   53) = (   0.6250000   0.1250000  -0.3750000), wk =   0.0312500
        k(   54) = (  -0.6250000   0.1250000   0.3750000), wk =   0.0312500
        k(   55) = (  -0.3750000   0.6250000   0.1250000), wk =   0.0312500
        k(   56) = (  -0.3750000  -0.6250000  -0.1250000), wk =   0.0312500
        k(   57) = (   0.3750000   0.6250000  -0.1250000), wk =   0.0312500
        k(   58) = (   0.3750000  -0.6250000   0.1250000), wk =   0.0312500
        k(   59) = (   0.1250000  -0.8750000  -0.1250000), wk =   0.0312500
        k(   60) = (  -0.1250000   0.8750000  -0.1250000), wk =   0.0312500
        k(   61) = (   0.8750000   0.1250000  -0.1250000), wk =   0.0312500
        k(   62) = (   0.1250000   0.1250000  -0.8750000), wk =   0.0312500
        k(   63) = (   0.1250000  -0.1250000   0.8750000), wk =   0.0156250
        k(   64) = (  -0.1250000   0.1250000   0.8750000), wk =   0.0156250
        k(   65) = (   0.3750000   0.3750000  -0.3750000), wk =   0.0312500
        k(   66) = (  -0.3750000   0.3750000  -0.3750000), wk =   0.0156250
        k(   67) = (  -0.3750000  -0.3750000  -1.1250000), wk =   0.0312500
        k(   68) = (   0.3750000  -0.3750000  -1.1250000), wk =   0.0156250
        k(   69) = (   1.1250000   0.3750000   0.3750000), wk =   0.0312500
        k(   70) = (  -1.1250000   0.3750000  -0.3750000), wk =   0.0312500
        k(   71) = (   1.1250000  -0.3750000  -0.3750000), wk =   0.0312500
        k(   72) = (  -1.1250000  -0.3750000   0.3750000), wk =   0.0312500

     Dense  grid:    87843 G-vectors     FFT dimensions: (  64,  64,  64)

     Smooth grid:    16889 G-vectors     FFT dimensions: (  36,  36,  36)

     Estimated max dynamical RAM per process >      16.44 MB

     Estimated total dynamical RAM >      65.76 MB

     Initial potential from superposition of free atoms

     starting charge       7.9989, renormalised to       8.0000
     Starting wfcs are    8 randomized atomic wfcs

     total cpu time spent up to now is        0.4 secs

     Self-consistent Calculation

     iteration #  1     ecut=    60.00 Ry     beta= 0.70
     Davidson diagonalization with overlap
     ethr =  1.00E-02,  avg # of iterations =  2.0

     Threshold (ethr) on eigenvalues was too large:
     Diagonalizing with lowered threshold

     Davidson diagonalization with overlap
     ethr =  5.78E-04,  avg # of iterations =  2.2

     total cpu time spent up to now is        0.9 secs

     total energy              =     -15.65280732 Ry
     estimated scf accuracy    <       0.05937533 Ry

     iteration #  2     ecut=    60.00 Ry     beta= 0.70
     Davidson diagonalization with overlap
     ethr =  7.42E-04,  avg # of iterations =  1.0

     total cpu time spent up to now is        1.1 secs

     total energy              =     -15.65526932 Ry
     estimated scf accuracy    <       0.00311165 Ry

     iteration #  3     ecut=    60.00 Ry     beta= 0.70
     Davidson diagonalization with overlap
     ethr =  3.89E-05,  avg # of iterations =  2.4

     total cpu time spent up to now is        1.3 secs

     total energy              =     -15.65602375 Ry
     estimated scf accuracy    <       0.00014483 Ry

     iteration #  4     ecut=    60.00 Ry     beta= 0.70
     Davidson diagonalization with overlap
     ethr =  1.81E-06,  avg # of iterations =  4.0

     total cpu time spent up to now is        1.6 secs

     total energy              =     -15.65610852 Ry
     estimated scf accuracy    <       0.00001742 Ry

     iteration #  5     ecut=    60.00 Ry     beta= 0.70
     Davidson diagonalization with overlap
     ethr =  2.18E-07,  avg # of iterations =  3.0

     total cpu time spent up to now is        1.9 secs

     total energy              =     -15.65611219 Ry
     estimated scf accuracy    <       0.00000189 Ry

     iteration #  6     ecut=    60.00 Ry     beta= 0.70
     Davidson diagonalization with overlap
     ethr =  2.36E-08,  avg # of iterations =  3.9

     total cpu time spent up to now is        2.2 secs

     total energy              =     -15.65611339 Ry
     estimated scf accuracy    <       0.00000056 Ry

     iteration #  7     ecut=    60.00 Ry     beta= 0.70
     Davidson diagonalization with overlap
     ethr =  6.98E-09,  avg # of iterations =  1.8

     total cpu time spent up to now is        2.4 secs

     total energy              =     -15.65611336 Ry
     estimated scf accuracy    <       0.00000012 Ry

     iteration #  8     ecut=    60.00 Ry     beta= 0.70
     Davidson diagonalization with overlap
     ethr =  1.54E-09,  avg # of iterations =  3.3

     total cpu time spent up to now is        2.7 secs

     total energy              =     -15.65611341 Ry
     estimated scf accuracy    <          3.2E-09 Ry

     iteration #  9     ecut=    60.00 Ry     beta= 0.70
     Davidson diagonalization with overlap
     ethr =  4.04E-11,  avg # of iterations =  4.7

     total cpu time spent up to now is        3.0 secs

     total energy              =     -15.65611341 Ry
     estimated scf accuracy    <          1.1E-09 Ry

     iteration # 10     ecut=    60.00 Ry     beta= 0.70
     Davidson diagonalization with overlap
     ethr =  1.39E-11,  avg # of iterations =  2.3

     total cpu time spent up to now is        3.3 secs

     End of self-consistent calculation

          k =-0.1250 0.1250 0.1250 (  2112 PWs)   bands (ev):

    -5.6660   4.2178   5.5993   6.3665

          k =-0.3750 0.3750-0.1250 (  2117 PWs)   bands (ev):

    -4.5646   0.8037   4.3815   5.4323

          k = 0.3750-0.3750 0.6250 (  2115 PWs)   bands (ev):

    -2.8573  -1.8592   4.5272   4.6035

          k = 0.1250-0.1250 0.3750 (  2106 PWs)   bands (ev):

    -5.0785   1.8869   4.8863   6.2092

          k =-0.1250 0.6250 0.1250 (  2114 PWs)   bands (ev):

    -4.2057   1.4965   3.4818   3.8823

          k = 0.6250-0.1250 0.8750 (  2132 PWs)   bands (ev):

    -2.3644  -1.2177   2.2378   3.5606

          k = 0.3750 0.1250 0.6250 (  2117 PWs)   bands (ev):

    -3.6672   0.0484   2.5317   5.2006

          k =-0.1250-0.8750 0.1250 (  2127 PWs)   bands (ev):

    -2.9057  -0.4212   3.1076   3.3709

          k =-0.3750 0.3750 0.3750 (  2114 PWs)   bands (ev):

    -4.4243   1.0163   4.0336   5.7437

          k = 0.3750-0.3750 1.1250 (  2125 PWs)   bands (ev):

    -3.3074   0.1918   1.7326   4.4845

          k = 0.1250 0.1250-0.1250 (  2112 PWs)   bands (ev):

    -5.6541   3.9250   5.3890   7.1291

          k =-0.1250 0.1250-0.1250 (  2112 PWs)   bands (ev):

    -5.6359   3.3741   6.0545   6.8368

          k = 0.3750 0.3750 0.1250 (  2117 PWs)   bands (ev):

    -4.6709   1.6680   3.3573   6.0357

          k =-0.3750 0.3750 0.1250 (  2117 PWs)   bands (ev):

    -4.7031   1.8617   3.3360   5.8474

          k =-0.1250-0.3750-0.3750 (  2117 PWs)   bands (ev):

    -4.7025   1.7461   3.9858   5.0003

          k = 0.1250-0.3750 0.3750 (  2117 PWs)   bands (ev):

    -4.5203   0.6284   4.0668   6.1318

          k =-0.1250 0.3750 0.3750 (  2117 PWs)   bands (ev):

    -4.7528   2.3597   3.4337   5.0103

          k = 0.1250 0.3750-0.3750 (  2117 PWs)   bands (ev):

    -4.6096   1.1801   3.5526   6.5224

          k =-0.3750-0.3750-0.6250 (  2115 PWs)   bands (ev):

    -3.6264  -0.3968   3.3825   5.4234

          k = 0.3750-0.3750-0.6250 (  2115 PWs)   bands (ev):

    -3.8857   0.4726   2.9619   5.0257

          k = 0.6250 0.3750 0.3750 (  2115 PWs)   bands (ev):

    -3.6318  -0.4092   3.7259   4.9361

          k =-0.6250 0.3750-0.3750 (  2115 PWs)   bands (ev):

    -2.9126  -1.7707   3.9869   5.1153

          k = 0.6250-0.3750-0.3750 (  2115 PWs)   bands (ev):

    -3.8888   0.4093   3.3886   4.6601

          k =-0.6250-0.3750 0.3750 (  2115 PWs)   bands (ev):

    -3.6433  -0.3053   3.1228   5.4633

          k =-0.1250-0.1250-0.3750 (  2106 PWs)   bands (ev):

    -5.1332   2.5195   4.5044   5.8867

          k = 0.1250-0.1250-0.3750 (  2106 PWs)   bands (ev):

    -5.1773   3.5165   3.9795   5.1267

          k = 0.3750 0.1250 0.1250 (  2106 PWs)   bands (ev):

    -5.1276   2.5319   4.3514   6.0290

          k =-0.3750 0.1250-0.1250 (  2106 PWs)   bands (ev):

    -5.0963   2.0640   5.0726   5.5621

          k = 0.3750-0.1250-0.1250 (  2106 PWs)   bands (ev):

    -5.1660   3.0932   4.3655   5.2399

          k =-0.3750-0.1250 0.1250 (  2106 PWs)   bands (ev):

    -5.1563   3.2264   3.8180   5.5798

          k = 0.1250 0.6250-0.1250 (  2114 PWs)   bands (ev):

    -4.1324   0.9965   3.5504   4.3929

          k =-0.1250-0.6250-0.1250 (  2114 PWs)   bands (ev):

    -4.1905   1.7292   2.5408   4.4817

          k =-0.6250 0.1250-0.1250 (  2114 PWs)   bands (ev):

    -4.0714   0.6662   3.6830   4.4114

          k = 0.1250 0.1250 0.6250 (  2114 PWs)   bands (ev):

    -4.1285   0.9405   3.4612   4.6119

          k = 0.1250-0.1250-0.6250 (  2114 PWs)   bands (ev):

    -4.2142   1.6395   3.0280   4.1277

          k =-0.1250 0.1250-0.6250 (  2114 PWs)   bands (ev):

    -4.0163   0.3668   4.0032   4.5441

          k =-0.6250-0.1250-0.8750 (  2132 PWs)   bands (ev):

    -2.7211  -0.4350   1.5950   3.8231

          k = 0.6250 0.1250-0.8750 (  2132 PWs)   bands (ev):

    -2.8602  -0.3194   2.6364   2.8028

          k = 0.1250-0.6250-0.8750 (  2132 PWs)   bands (ev):

    -2.9258  -0.0982   2.1204   3.1699

          k = 0.8750 0.1250 0.6250 (  2132 PWs)   bands (ev):

    -2.8230  -0.2074   1.6516   3.5669

          k =-0.8750 0.1250-0.6250 (  2132 PWs)   bands (ev):

    -2.3043  -1.2689   2.0401   3.7696

          k = 0.8750-0.1250-0.6250 (  2132 PWs)   bands (ev):

    -3.0375   0.2536   2.3469   2.6401

          k =-0.8750-0.1250 0.6250 (  2132 PWs)   bands (ev):

    -2.7904  -0.4470   2.2261   3.2856

          k =-0.6250 0.8750-0.1250 (  2132 PWs)   bands (ev):

    -2.1282  -1.5773   2.5854   3.3801

          k =-0.6250-0.8750 0.1250 (  2132 PWs)   bands (ev):

    -2.8192  -0.3946   2.2413   3.2578

          k = 0.6250 0.8750 0.1250 (  2132 PWs)   bands (ev):

    -2.6281  -0.7423   1.9316   3.8234

          k = 0.6250-0.8750-0.1250 (  2132 PWs)   bands (ev):

    -2.8924  -0.1433   1.9294   3.3286

          k =-0.3750 0.1250-0.6250 (  2117 PWs)   bands (ev):

    -3.4584  -0.6354   3.2152   4.7763

          k = 0.3750-0.1250-0.6250 (  2117 PWs)   bands (ev):

    -3.9372   1.3941   2.1604   4.1581

          k =-0.1250-0.3750-0.6250 (  2117 PWs)   bands (ev):

    -3.8418   0.5613   3.4287   3.6337

          k = 0.6250-0.1250 0.3750 (  2117 PWs)   bands (ev):

    -3.4940  -0.5088   2.9693   4.9001

          k =-0.6250-0.1250-0.3750 (  2117 PWs)   bands (ev):

    -3.6859   0.0788   2.7053   4.8716

          k = 0.6250 0.1250-0.3750 (  2117 PWs)   bands (ev):

    -3.8659   0.8561   2.5534   4.1748

          k =-0.6250 0.1250 0.3750 (  2117 PWs)   bands (ev):

    -3.9506   1.2397   2.8322   3.6042

          k =-0.3750 0.6250 0.1250 (  2117 PWs)   bands (ev):

    -3.8541   0.7764   2.4472   4.5219

          k =-0.3750-0.6250-0.1250 (  2117 PWs)   bands (ev):

    -3.8002   0.7118   2.1200   4.9023

          k = 0.3750 0.6250-0.1250 (  2117 PWs)   bands (ev):

    -3.7912   0.4406   2.8049   4.4394

          k = 0.3750-0.6250 0.1250 (  2117 PWs)   bands (ev):

    -3.5738  -0.3544   3.3534   4.3277

          k = 0.1250-0.8750-0.1250 (  2127 PWs)   bands (ev):

    -2.9967  -0.1827   3.0245   3.2547

          k =-0.1250 0.8750-0.1250 (  2127 PWs)   bands (ev):

    -2.7638  -0.6789   2.6001   3.8939

          k = 0.8750 0.1250-0.1250 (  2127 PWs)   bands (ev):

    -2.9330  -0.2261   2.2428   3.9195

          k = 0.1250 0.1250-0.8750 (  2127 PWs)   bands (ev):

    -2.7863  -0.6944   2.8086   3.9645

          k = 0.1250-0.1250 0.8750 (  2127 PWs)   bands (ev):

    -2.5660  -1.1147   3.2976   3.5566

          k =-0.1250 0.1250 0.8750 (  2127 PWs)   bands (ev):

    -2.8972  -0.4377   2.8039   3.5947

          k = 0.3750 0.3750-0.3750 (  2114 PWs)   bands (ev):

    -4.2632   0.3198   4.1669   6.3553

          k =-0.3750 0.3750-0.3750 (  2114 PWs)   bands (ev):

    -3.9477  -0.6869   4.9510   5.7435

          k =-0.3750-0.3750-1.1250 (  2125 PWs)   bands (ev):

    -3.2031  -0.1820   1.9459   4.8002

          k = 0.3750-0.3750-1.1250 (  2125 PWs)   bands (ev):

    -2.7072  -1.3301   2.7586   4.3281

          k = 1.1250 0.3750 0.3750 (  2125 PWs)   bands (ev):

    -3.4589   0.6405   1.9870   3.9602

          k =-1.1250 0.3750-0.3750 (  2125 PWs)   bands (ev):

    -3.0462  -0.4960   1.7977   4.8933

          k = 1.1250-0.3750-0.3750 (  2125 PWs)   bands (ev):

    -3.3159  -0.0167   2.5367   3.9310

          k =-1.1250-0.3750 0.3750 (  2125 PWs)   bands (ev):

    -2.5176  -1.5367   2.3606   4.7842

     highest occupied level (ev):     7.1291

!    total energy              =     -15.65611341 Ry
     estimated scf accuracy    <          9.0E-13 Ry

     The total energy is the sum of the following terms:
     one-electron contribution =       4.67712055 Ry
     hartree contribution      =       1.12199910 Ry
     xc contribution           =      -4.81781731 Ry
     ewald contribution        =     -16.63741575 Ry

     convergence has been achieved in  10 iterations

     Writing all to output data dir ./tmp/Si.save/ :
     XML data file, charge density, pseudopotentials, collected wavefunctions

     init_run     :      0.24s CPU      0.29s WALL (       1 calls)
     electrons    :      2.69s CPU      2.91s WALL (       1 calls)

     Called by init_run:
     wfcinit      :      0.15s CPU      0.16s WALL (       1 calls)
     potinit      :      0.04s CPU      0.05s WALL (       1 calls)
     hinit0       :      0.02s CPU      0.04s WALL (       1 calls)

     Called by electrons:
     c_bands      :      2.07s CPU      2.27s WALL (      11 calls)
     sum_band     :      0.32s CPU      0.33s WALL (      11 calls)
     v_of_rho     :      0.27s CPU      0.28s WALL (      11 calls)
     mix_rho      :      0.02s CPU      0.03s WALL (      11 calls)

     Called by c_bands:
     init_us_2    :      0.09s CPU      0.09s WALL (    1656 calls)
     cegterg      :      1.96s CPU      2.00s WALL (     792 calls)

     Called by *egterg:
     cdiaghg      :      0.15s CPU      0.16s WALL (    2925 calls)
     h_psi        :      1.78s CPU      1.82s WALL (    3069 calls)
     g_psi        :      0.01s CPU      0.01s WALL (    2205 calls)

     Called by h_psi:
     h_psi:calbec :      0.05s CPU      0.05s WALL (    3069 calls)
     vloc_psi     :      1.68s CPU      1.72s WALL (    3069 calls)
     add_vuspsi   :      0.04s CPU      0.04s WALL (    3069 calls)

     General routines
     calbec       :      0.05s CPU      0.05s WALL (    3069 calls)
     fft          :      0.12s CPU      0.13s WALL (     130 calls)
     ffts         :      0.00s CPU      0.00s WALL (      22 calls)
     fftw         :      1.56s CPU      1.60s WALL (   23664 calls)
     interpolate  :      0.01s CPU      0.01s WALL (      11 calls)

     Parallel routines

     PWSCF        :      3.02s CPU      3.36s WALL


   This run was terminated on:  12: 2:17  11Jun2025            

=------------------------------------------------------------------------------=
   JOB DONE.
=------------------------------------------------------------------------------=
